LAMMPS description of a ten-mer

8887 atoms
9 bonds
0 angles
0 dihedrals
0 impropers

3 atom types
1 bond types

0 60 xlo xhi
0 30 ylo yhi
0 30 zlo zhi

Masses

1 1.0
2 1.0
3 1.0

Pair Coeffs

1 2.5 3
2 2.5 3
3 2.5 3

Bond Coeffs

1 2 0.5

Atoms

1	1	1	22 15 15
2	1	2	21 15 15	
3	1	2	20	15 15
4	1	2	19	15 15
5	1	2	18	15 15
6	1	2	17	15 15
7	1	2	16	15 15
8	1	2	15 15 15
9	1	2	14 15 15
10	1	2	13 15 15
11	0	3	29	0	0
12	0	3	29.5	0.5	0
13	0	3	29.5	0	0.5
14	0	3	29	0.5	0.5
15	0	3	29	1	0
16	0	3	29.5	1.5	0
17	0	3	29.5	1	0.5
18	0	3	29	1.5	0.5
19	0	3	29	0	1
20	0	3	29.5	0.5	1
21	0	3	29.5	0	1.5
22	0	3	29	0.5	1.5
23	0	3	29	1	1
24	0	3	29.5	1.5	1
25	0	3	29.5	1	1.5
26	0	3	29	1.5	1.5
27	0	3	30	0	0
28	0	3	30.5	0.5	0
29	0	3	30.5	0	0.5
30	0	3	30	0.5	0.5
31	0	3	31	0	0
32	0	3	31	0.5	0.5
33	0	3	30	1	0
34	0	3	30.5	1.5	0
35	0	3	30.5	1	0.5
36	0	3	30	1.5	0.5
37	0	3	31	1	0
38	0	3	31	1.5	0.5
39	0	3	30	0	1
40	0	3	30.5	0.5	1
41	0	3	30.5	0	1.5
42	0	3	30	0.5	1.5
43	0	3	31	0	1
44	0	3	31	0.5	1.5
45	0	3	30	1	1
46	0	3	30.5	1.5	1
47	0	3	30.5	1	1.5
48	0	3	30	1.5	1.5
49	0	3	31	1	1
50	0	3	31	1.5	1.5
51	0	3	29	2	0
52	0	3	29.5	2.5	0
53	0	3	29.5	2	0.5
54	0	3	29	2.5	0.5
55	0	3	29	3	0
56	0	3	29.5	3	0.5
57	0	3	29	2	1
58	0	3	29.5	2.5	1
59	0	3	29.5	2	1.5
60	0	3	29	2.5	1.5
61	0	3	29	3	1
62	0	3	29.5	3	1.5
63	0	3	30	2	0
64	0	3	30.5	2.5	0
65	0	3	30.5	2	0.5
66	0	3	30	2.5	0.5
67	0	3	31	2	0
68	0	3	31	2.5	0.5
69	0	3	30	3	0
70	0	3	30.5	3	0.5
71	0	3	31	3	0
72	0	3	30	2	1
73	0	3	30.5	2.5	1
74	0	3	30.5	2	1.5
75	0	3	30	2.5	1.5
76	0	3	31	2	1
77	0	3	31	2.5	1.5
78	0	3	30	3	1
79	0	3	30.5	3	1.5
80	0	3	31	3	1
81	0	3	29.5	3.5	0
82	0	3	29	3.5	0.5
83	0	3	29	4	0
84	0	3	29.5	4.5	0
85	0	3	29.5	4	0.5
86	0	3	29	4.5	0.5
87	0	3	29.5	3.5	1
88	0	3	29	3.5	1.5
89	0	3	29	4	1
90	0	3	29.5	4.5	1
91	0	3	29.5	4	1.5
92	0	3	29	4.5	1.5
93	0	3	30.5	3.5	0
94	0	3	30	3.5	0.5
95	0	3	31	3.5	0.5
96	0	3	30	4	0
97	0	3	30.5	4.5	0
98	0	3	30.5	4	0.5
99	0	3	30	4.5	0.5
100	0	3	31	4	0
101	0	3	31	4.5	0.5
102	0	3	30.5	3.5	1
103	0	3	30	3.5	1.5
104	0	3	31	3.5	1.5
105	0	3	30	4	1
106	0	3	30.5	4.5	1
107	0	3	30.5	4	1.5
108	0	3	30	4.5	1.5
109	0	3	31	4	1
110	0	3	31	4.5	1.5
111	0	3	29	5	0
112	0	3	29.5	5.5	0
113	0	3	29.5	5	0.5
114	0	3	29	5.5	0.5
115	0	3	29	6	0
116	0	3	29.5	6.5	0
117	0	3	29.5	6	0.5
118	0	3	29	6.5	0.5
119	0	3	29	5	1
120	0	3	29.5	5.5	1
121	0	3	29.5	5	1.5
122	0	3	29	5.5	1.5
123	0	3	29	6	1
124	0	3	29.5	6.5	1
125	0	3	29.5	6	1.5
126	0	3	29	6.5	1.5
127	0	3	30	5	0
128	0	3	30.5	5.5	0
129	0	3	30.5	5	0.5
130	0	3	30	5.5	0.5
131	0	3	31	5	0
132	0	3	31	5.5	0.5
133	0	3	30	6	0
134	0	3	30.5	6.5	0
135	0	3	30.5	6	0.5
136	0	3	30	6.5	0.5
137	0	3	31	6	0
138	0	3	31	6.5	0.5
139	0	3	30	5	1
140	0	3	30.5	5.5	1
141	0	3	30.5	5	1.5
142	0	3	30	5.5	1.5
143	0	3	31	5	1
144	0	3	31	5.5	1.5
145	0	3	30	6	1
146	0	3	30.5	6.5	1
147	0	3	30.5	6	1.5
148	0	3	30	6.5	1.5
149	0	3	31	6	1
150	0	3	31	6.5	1.5
151	0	3	29	7	0
152	0	3	29.5	7.5	0
153	0	3	29.5	7	0.5
154	0	3	29	7.5	0.5
155	0	3	29	8	0
156	0	3	29.5	8	0.5
157	0	3	29	7	1
158	0	3	29.5	7.5	1
159	0	3	29.5	7	1.5
160	0	3	29	7.5	1.5
161	0	3	29	8	1
162	0	3	29.5	8	1.5
163	0	3	30	7	0
164	0	3	30.5	7.5	0
165	0	3	30.5	7	0.5
166	0	3	30	7.5	0.5
167	0	3	31	7	0
168	0	3	31	7.5	0.5
169	0	3	30	8	0
170	0	3	30.5	8	0.5
171	0	3	31	8	0
172	0	3	30	7	1
173	0	3	30.5	7.5	1
174	0	3	30.5	7	1.5
175	0	3	30	7.5	1.5
176	0	3	31	7	1
177	0	3	31	7.5	1.5
178	0	3	30	8	1
179	0	3	30.5	8	1.5
180	0	3	31	8	1
181	0	3	29.5	8.5	0
182	0	3	29	8.5	0.5
183	0	3	29	9	0
184	0	3	29.5	9.5	0
185	0	3	29.5	9	0.5
186	0	3	29	9.5	0.5
187	0	3	29.5	8.5	1
188	0	3	29	8.5	1.5
189	0	3	29	9	1
190	0	3	29.5	9.5	1
191	0	3	29.5	9	1.5
192	0	3	29	9.5	1.5
193	0	3	30.5	8.5	0
194	0	3	30	8.5	0.5
195	0	3	31	8.5	0.5
196	0	3	30	9	0
197	0	3	30.5	9.5	0
198	0	3	30.5	9	0.5
199	0	3	30	9.5	0.5
200	0	3	31	9	0
201	0	3	31	9.5	0.5
202	0	3	30.5	8.5	1
203	0	3	30	8.5	1.5
204	0	3	31	8.5	1.5
205	0	3	30	9	1
206	0	3	30.5	9.5	1
207	0	3	30.5	9	1.5
208	0	3	30	9.5	1.5
209	0	3	31	9	1
210	0	3	31	9.5	1.5
211	0	3	29	10	0
212	0	3	29.5	10.5	0
213	0	3	29.5	10	0.5
214	0	3	29	10.5	0.5
215	0	3	29	11	0
216	0	3	29.5	11.5	0
217	0	3	29.5	11	0.5
218	0	3	29	11.5	0.5
219	0	3	29	10	1
220	0	3	29.5	10.5	1
221	0	3	29.5	10	1.5
222	0	3	29	10.5	1.5
223	0	3	29	11	1
224	0	3	29.5	11.5	1
225	0	3	29.5	11	1.5
226	0	3	29	11.5	1.5
227	0	3	30	10	0
228	0	3	30.5	10.5	0
229	0	3	30.5	10	0.5
230	0	3	30	10.5	0.5
231	0	3	31	10	0
232	0	3	31	10.5	0.5
233	0	3	30	11	0
234	0	3	30.5	11.5	0
235	0	3	30.5	11	0.5
236	0	3	30	11.5	0.5
237	0	3	31	11	0
238	0	3	31	11.5	0.5
239	0	3	30	10	1
240	0	3	30.5	10.5	1
241	0	3	30.5	10	1.5
242	0	3	30	10.5	1.5
243	0	3	31	10	1
244	0	3	31	10.5	1.5
245	0	3	30	11	1
246	0	3	30.5	11.5	1
247	0	3	30.5	11	1.5
248	0	3	30	11.5	1.5
249	0	3	31	11	1
250	0	3	31	11.5	1.5
251	0	3	29	12	0
252	0	3	29.5	12.5	0
253	0	3	29.5	12	0.5
254	0	3	29	12.5	0.5
255	0	3	29	13	0
256	0	3	29.5	13	0.5
257	0	3	29	12	1
258	0	3	29.5	12.5	1
259	0	3	29.5	12	1.5
260	0	3	29	12.5	1.5
261	0	3	29	13	1
262	0	3	29.5	13	1.5
263	0	3	30	12	0
264	0	3	30.5	12.5	0
265	0	3	30.5	12	0.5
266	0	3	30	12.5	0.5
267	0	3	31	12	0
268	0	3	31	12.5	0.5
269	0	3	30	13	0
270	0	3	30.5	13	0.5
271	0	3	31	13	0
272	0	3	30	12	1
273	0	3	30.5	12.5	1
274	0	3	30.5	12	1.5
275	0	3	30	12.5	1.5
276	0	3	31	12	1
277	0	3	31	12.5	1.5
278	0	3	30	13	1
279	0	3	30.5	13	1.5
280	0	3	31	13	1
281	0	3	29.5	13.5	0
282	0	3	29	13.5	0.5
283	0	3	29	14	0
284	0	3	29.5	14.5	0
285	0	3	29.5	14	0.5
286	0	3	29	14.5	0.5
287	0	3	29.5	13.5	1
288	0	3	29	13.5	1.5
289	0	3	29	14	1
290	0	3	29.5	14.5	1
291	0	3	29.5	14	1.5
292	0	3	29	14.5	1.5
293	0	3	30.5	13.5	0
294	0	3	30	13.5	0.5
295	0	3	31	13.5	0.5
296	0	3	30	14	0
297	0	3	30.5	14.5	0
298	0	3	30.5	14	0.5
299	0	3	30	14.5	0.5
300	0	3	31	14	0
301	0	3	31	14.5	0.5
302	0	3	30.5	13.5	1
303	0	3	30	13.5	1.5
304	0	3	31	13.5	1.5
305	0	3	30	14	1
306	0	3	30.5	14.5	1
307	0	3	30.5	14	1.5
308	0	3	30	14.5	1.5
309	0	3	31	14	1
310	0	3	31	14.5	1.5
311	0	3	29	15	0
312	0	3	29.5	15.5	0
313	0	3	29.5	15	0.5
314	0	3	29	15.5	0.5
315	0	3	29	16	0
316	0	3	29.5	16.5	0
317	0	3	29.5	16	0.5
318	0	3	29	16.5	0.5
319	0	3	29	15	1
320	0	3	29.5	15.5	1
321	0	3	29.5	15	1.5
322	0	3	29	15.5	1.5
323	0	3	29	16	1
324	0	3	29.5	16.5	1
325	0	3	29.5	16	1.5
326	0	3	29	16.5	1.5
327	0	3	30	15	0
328	0	3	30.5	15.5	0
329	0	3	30.5	15	0.5
330	0	3	30	15.5	0.5
331	0	3	31	15	0
332	0	3	31	15.5	0.5
333	0	3	30	16	0
334	0	3	30.5	16.5	0
335	0	3	30.5	16	0.5
336	0	3	30	16.5	0.5
337	0	3	31	16	0
338	0	3	31	16.5	0.5
339	0	3	30	15	1
340	0	3	30.5	15.5	1
341	0	3	30.5	15	1.5
342	0	3	30	15.5	1.5
343	0	3	31	15	1
344	0	3	31	15.5	1.5
345	0	3	30	16	1
346	0	3	30.5	16.5	1
347	0	3	30.5	16	1.5
348	0	3	30	16.5	1.5
349	0	3	31	16	1
350	0	3	31	16.5	1.5
351	0	3	29	17	0
352	0	3	29.5	17.5	0
353	0	3	29.5	17	0.5
354	0	3	29	17.5	0.5
355	0	3	29	18	0
356	0	3	29.5	18	0.5
357	0	3	29	17	1
358	0	3	29.5	17.5	1
359	0	3	29.5	17	1.5
360	0	3	29	17.5	1.5
361	0	3	29	18	1
362	0	3	29.5	18	1.5
363	0	3	30	17	0
364	0	3	30.5	17.5	0
365	0	3	30.5	17	0.5
366	0	3	30	17.5	0.5
367	0	3	31	17	0
368	0	3	31	17.5	0.5
369	0	3	30	18	0
370	0	3	30.5	18	0.5
371	0	3	31	18	0
372	0	3	30	17	1
373	0	3	30.5	17.5	1
374	0	3	30.5	17	1.5
375	0	3	30	17.5	1.5
376	0	3	31	17	1
377	0	3	31	17.5	1.5
378	0	3	30	18	1
379	0	3	30.5	18	1.5
380	0	3	31	18	1
381	0	3	29.5	18.5	0
382	0	3	29	18.5	0.5
383	0	3	29	19	0
384	0	3	29.5	19.5	0
385	0	3	29.5	19	0.5
386	0	3	29	19.5	0.5
387	0	3	29.5	18.5	1
388	0	3	29	18.5	1.5
389	0	3	29	19	1
390	0	3	29.5	19.5	1
391	0	3	29.5	19	1.5
392	0	3	29	19.5	1.5
393	0	3	30.5	18.5	0
394	0	3	30	18.5	0.5
395	0	3	31	18.5	0.5
396	0	3	30	19	0
397	0	3	30.5	19.5	0
398	0	3	30.5	19	0.5
399	0	3	30	19.5	0.5
400	0	3	31	19	0
401	0	3	31	19.5	0.5
402	0	3	30.5	18.5	1
403	0	3	30	18.5	1.5
404	0	3	31	18.5	1.5
405	0	3	30	19	1
406	0	3	30.5	19.5	1
407	0	3	30.5	19	1.5
408	0	3	30	19.5	1.5
409	0	3	31	19	1
410	0	3	31	19.5	1.5
411	0	3	29	20	0
412	0	3	29.5	20.5	0
413	0	3	29.5	20	0.5
414	0	3	29	20.5	0.5
415	0	3	29	21	0
416	0	3	29.5	21.5	0
417	0	3	29.5	21	0.5
418	0	3	29	21.5	0.5
419	0	3	29	20	1
420	0	3	29.5	20.5	1
421	0	3	29.5	20	1.5
422	0	3	29	20.5	1.5
423	0	3	29	21	1
424	0	3	29.5	21.5	1
425	0	3	29.5	21	1.5
426	0	3	29	21.5	1.5
427	0	3	30	20	0
428	0	3	30.5	20.5	0
429	0	3	30.5	20	0.5
430	0	3	30	20.5	0.5
431	0	3	31	20	0
432	0	3	31	20.5	0.5
433	0	3	30	21	0
434	0	3	30.5	21.5	0
435	0	3	30.5	21	0.5
436	0	3	30	21.5	0.5
437	0	3	31	21	0
438	0	3	31	21.5	0.5
439	0	3	30	20	1
440	0	3	30.5	20.5	1
441	0	3	30.5	20	1.5
442	0	3	30	20.5	1.5
443	0	3	31	20	1
444	0	3	31	20.5	1.5
445	0	3	30	21	1
446	0	3	30.5	21.5	1
447	0	3	30.5	21	1.5
448	0	3	30	21.5	1.5
449	0	3	31	21	1
450	0	3	31	21.5	1.5
451	0	3	29	22	0
452	0	3	29.5	22.5	0
453	0	3	29.5	22	0.5
454	0	3	29	22.5	0.5
455	0	3	29	23	0
456	0	3	29.5	23	0.5
457	0	3	29	22	1
458	0	3	29.5	22.5	1
459	0	3	29.5	22	1.5
460	0	3	29	22.5	1.5
461	0	3	29	23	1
462	0	3	29.5	23	1.5
463	0	3	30	22	0
464	0	3	30.5	22.5	0
465	0	3	30.5	22	0.5
466	0	3	30	22.5	0.5
467	0	3	31	22	0
468	0	3	31	22.5	0.5
469	0	3	30	23	0
470	0	3	30.5	23	0.5
471	0	3	31	23	0
472	0	3	30	22	1
473	0	3	30.5	22.5	1
474	0	3	30.5	22	1.5
475	0	3	30	22.5	1.5
476	0	3	31	22	1
477	0	3	31	22.5	1.5
478	0	3	30	23	1
479	0	3	30.5	23	1.5
480	0	3	31	23	1
481	0	3	29.5	23.5	0
482	0	3	29	23.5	0.5
483	0	3	29	24	0
484	0	3	29.5	24.5	0
485	0	3	29.5	24	0.5
486	0	3	29	24.5	0.5
487	0	3	29.5	23.5	1
488	0	3	29	23.5	1.5
489	0	3	29	24	1
490	0	3	29.5	24.5	1
491	0	3	29.5	24	1.5
492	0	3	29	24.5	1.5
493	0	3	30.5	23.5	0
494	0	3	30	23.5	0.5
495	0	3	31	23.5	0.5
496	0	3	30	24	0
497	0	3	30.5	24.5	0
498	0	3	30.5	24	0.5
499	0	3	30	24.5	0.5
500	0	3	31	24	0
501	0	3	31	24.5	0.5
502	0	3	30.5	23.5	1
503	0	3	30	23.5	1.5
504	0	3	31	23.5	1.5
505	0	3	30	24	1
506	0	3	30.5	24.5	1
507	0	3	30.5	24	1.5
508	0	3	30	24.5	1.5
509	0	3	31	24	1
510	0	3	31	24.5	1.5
511	0	3	29	25	0
512	0	3	29.5	25.5	0
513	0	3	29.5	25	0.5
514	0	3	29	25.5	0.5
515	0	3	29	26	0
516	0	3	29.5	26.5	0
517	0	3	29.5	26	0.5
518	0	3	29	26.5	0.5
519	0	3	29	25	1
520	0	3	29.5	25.5	1
521	0	3	29.5	25	1.5
522	0	3	29	25.5	1.5
523	0	3	29	26	1
524	0	3	29.5	26.5	1
525	0	3	29.5	26	1.5
526	0	3	29	26.5	1.5
527	0	3	30	25	0
528	0	3	30.5	25.5	0
529	0	3	30.5	25	0.5
530	0	3	30	25.5	0.5
531	0	3	31	25	0
532	0	3	31	25.5	0.5
533	0	3	30	26	0
534	0	3	30.5	26.5	0
535	0	3	30.5	26	0.5
536	0	3	30	26.5	0.5
537	0	3	31	26	0
538	0	3	31	26.5	0.5
539	0	3	30	25	1
540	0	3	30.5	25.5	1
541	0	3	30.5	25	1.5
542	0	3	30	25.5	1.5
543	0	3	31	25	1
544	0	3	31	25.5	1.5
545	0	3	30	26	1
546	0	3	30.5	26.5	1
547	0	3	30.5	26	1.5
548	0	3	30	26.5	1.5
549	0	3	31	26	1
550	0	3	31	26.5	1.5
551	0	3	29	27	0
552	0	3	29.5	27.5	0
553	0	3	29.5	27	0.5
554	0	3	29	27.5	0.5
555	0	3	29	28	0
556	0	3	29.5	28	0.5
557	0	3	29	27	1
558	0	3	29.5	27.5	1
559	0	3	29.5	27	1.5
560	0	3	29	27.5	1.5
561	0	3	29	28	1
562	0	3	29.5	28	1.5
563	0	3	30	27	0
564	0	3	30.5	27.5	0
565	0	3	30.5	27	0.5
566	0	3	30	27.5	0.5
567	0	3	31	27	0
568	0	3	31	27.5	0.5
569	0	3	30	28	0
570	0	3	30.5	28	0.5
571	0	3	31	28	0
572	0	3	30	27	1
573	0	3	30.5	27.5	1
574	0	3	30.5	27	1.5
575	0	3	30	27.5	1.5
576	0	3	31	27	1
577	0	3	31	27.5	1.5
578	0	3	30	28	1
579	0	3	30.5	28	1.5
580	0	3	31	28	1
581	0	3	29.5	28.5	0
582	0	3	29	28.5	0.5
583	0	3	29	29	0
584	0	3	29.5	29.5	0
585	0	3	29.5	29	0.5
586	0	3	29	29.5	0.5
587	0	3	29.5	28.5	1
588	0	3	29	28.5	1.5
589	0	3	29	29	1
590	0	3	29.5	29.5	1
591	0	3	29.5	29	1.5
592	0	3	29	29.5	1.5
593	0	3	30.5	28.5	0
594	0	3	30	28.5	0.5
595	0	3	31	28.5	0.5
596	0	3	30	29	0
597	0	3	30.5	29.5	0
598	0	3	30.5	29	0.5
599	0	3	30	29.5	0.5
600	0	3	31	29	0
601	0	3	31	29.5	0.5
602	0	3	30.5	28.5	1
603	0	3	30	28.5	1.5
604	0	3	31	28.5	1.5
605	0	3	30	29	1
606	0	3	30.5	29.5	1
607	0	3	30.5	29	1.5
608	0	3	30	29.5	1.5
609	0	3	31	29	1
610	0	3	31	29.5	1.5
611	0	3	29	0	2
612	0	3	29.5	0.5	2
613	0	3	29.5	0	2.5
614	0	3	29	0.5	2.5
615	0	3	29	1	2
616	0	3	29.5	1.5	2
617	0	3	29.5	1	2.5
618	0	3	29	1.5	2.5
619	0	3	29	0	3
620	0	3	29.5	0.5	3
621	0	3	29	1	3
622	0	3	29.5	1.5	3
623	0	3	30	0	2
624	0	3	30.5	0.5	2
625	0	3	30.5	0	2.5
626	0	3	30	0.5	2.5
627	0	3	31	0	2
628	0	3	31	0.5	2.5
629	0	3	30	1	2
630	0	3	30.5	1.5	2
631	0	3	30.5	1	2.5
632	0	3	30	1.5	2.5
633	0	3	31	1	2
634	0	3	31	1.5	2.5
635	0	3	30	0	3
636	0	3	30.5	0.5	3
637	0	3	31	0	3
638	0	3	30	1	3
639	0	3	30.5	1.5	3
640	0	3	31	1	3
641	0	3	29	2	2
642	0	3	29.5	2.5	2
643	0	3	29.5	2	2.5
644	0	3	29	2.5	2.5
645	0	3	29	3	2
646	0	3	29.5	3	2.5
647	0	3	29	2	3
648	0	3	29.5	2.5	3
649	0	3	29	3	3
650	0	3	30	2	2
651	0	3	30.5	2.5	2
652	0	3	30.5	2	2.5
653	0	3	30	2.5	2.5
654	0	3	31	2	2
655	0	3	31	2.5	2.5
656	0	3	30	3	2
657	0	3	30.5	3	2.5
658	0	3	31	3	2
659	0	3	30	2	3
660	0	3	30.5	2.5	3
661	0	3	31	2	3
662	0	3	30	3	3
663	0	3	31	3	3
664	0	3	29.5	3.5	2
665	0	3	29	3.5	2.5
666	0	3	29	4	2
667	0	3	29.5	4.5	2
668	0	3	29.5	4	2.5
669	0	3	29	4.5	2.5
670	0	3	29.5	3.5	3
671	0	3	29	4	3
672	0	3	29.5	4.5	3
673	0	3	30.5	3.5	2
674	0	3	30	3.5	2.5
675	0	3	31	3.5	2.5
676	0	3	30	4	2
677	0	3	30.5	4.5	2
678	0	3	30.5	4	2.5
679	0	3	30	4.5	2.5
680	0	3	31	4	2
681	0	3	31	4.5	2.5
682	0	3	30.5	3.5	3
683	0	3	30	4	3
684	0	3	30.5	4.5	3
685	0	3	31	4	3
686	0	3	29	5	2
687	0	3	29.5	5.5	2
688	0	3	29.5	5	2.5
689	0	3	29	5.5	2.5
690	0	3	29	6	2
691	0	3	29.5	6.5	2
692	0	3	29.5	6	2.5
693	0	3	29	6.5	2.5
694	0	3	29	5	3
695	0	3	29.5	5.5	3
696	0	3	29	6	3
697	0	3	29.5	6.5	3
698	0	3	30	5	2
699	0	3	30.5	5.5	2
700	0	3	30.5	5	2.5
701	0	3	30	5.5	2.5
702	0	3	31	5	2
703	0	3	31	5.5	2.5
704	0	3	30	6	2
705	0	3	30.5	6.5	2
706	0	3	30.5	6	2.5
707	0	3	30	6.5	2.5
708	0	3	31	6	2
709	0	3	31	6.5	2.5
710	0	3	30	5	3
711	0	3	30.5	5.5	3
712	0	3	31	5	3
713	0	3	30	6	3
714	0	3	30.5	6.5	3
715	0	3	31	6	3
716	0	3	29	7	2
717	0	3	29.5	7.5	2
718	0	3	29.5	7	2.5
719	0	3	29	7.5	2.5
720	0	3	29	8	2
721	0	3	29.5	8	2.5
722	0	3	29	7	3
723	0	3	29.5	7.5	3
724	0	3	29	8	3
725	0	3	30	7	2
726	0	3	30.5	7.5	2
727	0	3	30.5	7	2.5
728	0	3	30	7.5	2.5
729	0	3	31	7	2
730	0	3	31	7.5	2.5
731	0	3	30	8	2
732	0	3	30.5	8	2.5
733	0	3	31	8	2
734	0	3	30	7	3
735	0	3	30.5	7.5	3
736	0	3	31	7	3
737	0	3	30	8	3
738	0	3	31	8	3
739	0	3	29.5	8.5	2
740	0	3	29	8.5	2.5
741	0	3	29	9	2
742	0	3	29.5	9.5	2
743	0	3	29.5	9	2.5
744	0	3	29	9.5	2.5
745	0	3	29.5	8.5	3
746	0	3	29	9	3
747	0	3	29.5	9.5	3
748	0	3	30.5	8.5	2
749	0	3	30	8.5	2.5
750	0	3	31	8.5	2.5
751	0	3	30	9	2
752	0	3	30.5	9.5	2
753	0	3	30.5	9	2.5
754	0	3	30	9.5	2.5
755	0	3	31	9	2
756	0	3	31	9.5	2.5
757	0	3	30.5	8.5	3
758	0	3	30	9	3
759	0	3	30.5	9.5	3
760	0	3	31	9	3
761	0	3	29	10	2
762	0	3	29.5	10.5	2
763	0	3	29.5	10	2.5
764	0	3	29	10.5	2.5
765	0	3	29	11	2
766	0	3	29.5	11.5	2
767	0	3	29.5	11	2.5
768	0	3	29	11.5	2.5
769	0	3	29	10	3
770	0	3	29.5	10.5	3
771	0	3	29	11	3
772	0	3	29.5	11.5	3
773	0	3	30	10	2
774	0	3	30.5	10.5	2
775	0	3	30.5	10	2.5
776	0	3	30	10.5	2.5
777	0	3	31	10	2
778	0	3	31	10.5	2.5
779	0	3	30	11	2
780	0	3	30.5	11.5	2
781	0	3	30.5	11	2.5
782	0	3	30	11.5	2.5
783	0	3	31	11	2
784	0	3	31	11.5	2.5
785	0	3	30	10	3
786	0	3	30.5	10.5	3
787	0	3	31	10	3
788	0	3	30	11	3
789	0	3	30.5	11.5	3
790	0	3	31	11	3
791	0	3	29	12	2
792	0	3	29.5	12.5	2
793	0	3	29.5	12	2.5
794	0	3	29	12.5	2.5
795	0	3	29	13	2
796	0	3	29.5	13	2.5
797	0	3	29	12	3
798	0	3	29.5	12.5	3
799	0	3	29	13	3
800	0	3	30	12	2
801	0	3	30.5	12.5	2
802	0	3	30.5	12	2.5
803	0	3	30	12.5	2.5
804	0	3	31	12	2
805	0	3	31	12.5	2.5
806	0	3	30	13	2
807	0	3	30.5	13	2.5
808	0	3	31	13	2
809	0	3	30	12	3
810	0	3	30.5	12.5	3
811	0	3	31	12	3
812	0	3	30	13	3
813	0	3	31	13	3
814	0	3	29.5	13.5	2
815	0	3	29	13.5	2.5
816	0	3	29	14	2
817	0	3	29.5	14.5	2
818	0	3	29.5	14	2.5
819	0	3	29	14.5	2.5
820	0	3	29.5	13.5	3
821	0	3	29	14	3
822	0	3	29.5	14.5	3
823	0	3	30.5	13.5	2
824	0	3	30	13.5	2.5
825	0	3	31	13.5	2.5
826	0	3	30	14	2
827	0	3	30.5	14.5	2
828	0	3	30.5	14	2.5
829	0	3	30	14.5	2.5
830	0	3	31	14	2
831	0	3	31	14.5	2.5
832	0	3	30.5	13.5	3
833	0	3	30	14	3
834	0	3	30.5	14.5	3
835	0	3	31	14	3
836	0	3	29	15	2
837	0	3	29.5	15.5	2
838	0	3	29.5	15	2.5
839	0	3	29	15.5	2.5
840	0	3	29	16	2
841	0	3	29.5	16.5	2
842	0	3	29.5	16	2.5
843	0	3	29	16.5	2.5
844	0	3	29	15	3
845	0	3	29.5	15.5	3
846	0	3	29	16	3
847	0	3	29.5	16.5	3
848	0	3	30	15	2
849	0	3	30.5	15.5	2
850	0	3	30.5	15	2.5
851	0	3	30	15.5	2.5
852	0	3	31	15	2
853	0	3	31	15.5	2.5
854	0	3	30	16	2
855	0	3	30.5	16.5	2
856	0	3	30.5	16	2.5
857	0	3	30	16.5	2.5
858	0	3	31	16	2
859	0	3	31	16.5	2.5
860	0	3	30	15	3
861	0	3	30.5	15.5	3
862	0	3	31	15	3
863	0	3	30	16	3
864	0	3	30.5	16.5	3
865	0	3	31	16	3
866	0	3	29	17	2
867	0	3	29.5	17.5	2
868	0	3	29.5	17	2.5
869	0	3	29	17.5	2.5
870	0	3	29	18	2
871	0	3	29.5	18	2.5
872	0	3	29	17	3
873	0	3	29.5	17.5	3
874	0	3	29	18	3
875	0	3	30	17	2
876	0	3	30.5	17.5	2
877	0	3	30.5	17	2.5
878	0	3	30	17.5	2.5
879	0	3	31	17	2
880	0	3	31	17.5	2.5
881	0	3	30	18	2
882	0	3	30.5	18	2.5
883	0	3	31	18	2
884	0	3	30	17	3
885	0	3	30.5	17.5	3
886	0	3	31	17	3
887	0	3	30	18	3
888	0	3	31	18	3
889	0	3	29.5	18.5	2
890	0	3	29	18.5	2.5
891	0	3	29	19	2
892	0	3	29.5	19.5	2
893	0	3	29.5	19	2.5
894	0	3	29	19.5	2.5
895	0	3	29.5	18.5	3
896	0	3	29	19	3
897	0	3	29.5	19.5	3
898	0	3	30.5	18.5	2
899	0	3	30	18.5	2.5
900	0	3	31	18.5	2.5
901	0	3	30	19	2
902	0	3	30.5	19.5	2
903	0	3	30.5	19	2.5
904	0	3	30	19.5	2.5
905	0	3	31	19	2
906	0	3	31	19.5	2.5
907	0	3	30.5	18.5	3
908	0	3	30	19	3
909	0	3	30.5	19.5	3
910	0	3	31	19	3
911	0	3	29	20	2
912	0	3	29.5	20.5	2
913	0	3	29.5	20	2.5
914	0	3	29	20.5	2.5
915	0	3	29	21	2
916	0	3	29.5	21.5	2
917	0	3	29.5	21	2.5
918	0	3	29	21.5	2.5
919	0	3	29	20	3
920	0	3	29.5	20.5	3
921	0	3	29	21	3
922	0	3	29.5	21.5	3
923	0	3	30	20	2
924	0	3	30.5	20.5	2
925	0	3	30.5	20	2.5
926	0	3	30	20.5	2.5
927	0	3	31	20	2
928	0	3	31	20.5	2.5
929	0	3	30	21	2
930	0	3	30.5	21.5	2
931	0	3	30.5	21	2.5
932	0	3	30	21.5	2.5
933	0	3	31	21	2
934	0	3	31	21.5	2.5
935	0	3	30	20	3
936	0	3	30.5	20.5	3
937	0	3	31	20	3
938	0	3	30	21	3
939	0	3	30.5	21.5	3
940	0	3	31	21	3
941	0	3	29	22	2
942	0	3	29.5	22.5	2
943	0	3	29.5	22	2.5
944	0	3	29	22.5	2.5
945	0	3	29	23	2
946	0	3	29.5	23	2.5
947	0	3	29	22	3
948	0	3	29.5	22.5	3
949	0	3	29	23	3
950	0	3	30	22	2
951	0	3	30.5	22.5	2
952	0	3	30.5	22	2.5
953	0	3	30	22.5	2.5
954	0	3	31	22	2
955	0	3	31	22.5	2.5
956	0	3	30	23	2
957	0	3	30.5	23	2.5
958	0	3	31	23	2
959	0	3	30	22	3
960	0	3	30.5	22.5	3
961	0	3	31	22	3
962	0	3	30	23	3
963	0	3	31	23	3
964	0	3	29.5	23.5	2
965	0	3	29	23.5	2.5
966	0	3	29	24	2
967	0	3	29.5	24.5	2
968	0	3	29.5	24	2.5
969	0	3	29	24.5	2.5
970	0	3	29.5	23.5	3
971	0	3	29	24	3
972	0	3	29.5	24.5	3
973	0	3	30.5	23.5	2
974	0	3	30	23.5	2.5
975	0	3	31	23.5	2.5
976	0	3	30	24	2
977	0	3	30.5	24.5	2
978	0	3	30.5	24	2.5
979	0	3	30	24.5	2.5
980	0	3	31	24	2
981	0	3	31	24.5	2.5
982	0	3	30.5	23.5	3
983	0	3	30	24	3
984	0	3	30.5	24.5	3
985	0	3	31	24	3
986	0	3	29	25	2
987	0	3	29.5	25.5	2
988	0	3	29.5	25	2.5
989	0	3	29	25.5	2.5
990	0	3	29	26	2
991	0	3	29.5	26.5	2
992	0	3	29.5	26	2.5
993	0	3	29	26.5	2.5
994	0	3	29	25	3
995	0	3	29.5	25.5	3
996	0	3	29	26	3
997	0	3	29.5	26.5	3
998	0	3	30	25	2
999	0	3	30.5	25.5	2
1000	0	3	30.5	25	2.5
1001	0	3	30	25.5	2.5
1002	0	3	31	25	2
1003	0	3	31	25.5	2.5
1004	0	3	30	26	2
1005	0	3	30.5	26.5	2
1006	0	3	30.5	26	2.5
1007	0	3	30	26.5	2.5
1008	0	3	31	26	2
1009	0	3	31	26.5	2.5
1010	0	3	30	25	3
1011	0	3	30.5	25.5	3
1012	0	3	31	25	3
1013	0	3	30	26	3
1014	0	3	30.5	26.5	3
1015	0	3	31	26	3
1016	0	3	29	27	2
1017	0	3	29.5	27.5	2
1018	0	3	29.5	27	2.5
1019	0	3	29	27.5	2.5
1020	0	3	29	28	2
1021	0	3	29.5	28	2.5
1022	0	3	29	27	3
1023	0	3	29.5	27.5	3
1024	0	3	29	28	3
1025	0	3	30	27	2
1026	0	3	30.5	27.5	2
1027	0	3	30.5	27	2.5
1028	0	3	30	27.5	2.5
1029	0	3	31	27	2
1030	0	3	31	27.5	2.5
1031	0	3	30	28	2
1032	0	3	30.5	28	2.5
1033	0	3	31	28	2
1034	0	3	30	27	3
1035	0	3	30.5	27.5	3
1036	0	3	31	27	3
1037	0	3	30	28	3
1038	0	3	31	28	3
1039	0	3	29.5	28.5	2
1040	0	3	29	28.5	2.5
1041	0	3	29	29	2
1042	0	3	29.5	29.5	2
1043	0	3	29.5	29	2.5
1044	0	3	29	29.5	2.5
1045	0	3	29.5	28.5	3
1046	0	3	29	29	3
1047	0	3	29.5	29.5	3
1048	0	3	30.5	28.5	2
1049	0	3	30	28.5	2.5
1050	0	3	31	28.5	2.5
1051	0	3	30	29	2
1052	0	3	30.5	29.5	2
1053	0	3	30.5	29	2.5
1054	0	3	30	29.5	2.5
1055	0	3	31	29	2
1056	0	3	31	29.5	2.5
1057	0	3	30.5	28.5	3
1058	0	3	30	29	3
1059	0	3	30.5	29.5	3
1060	0	3	31	29	3
1061	0	3	29.5	0	3.5
1062	0	3	29	0.5	3.5
1063	0	3	29.5	1	3.5
1064	0	3	29	1.5	3.5
1065	0	3	29	0	4
1066	0	3	29.5	0.5	4
1067	0	3	29.5	0	4.5
1068	0	3	29	0.5	4.5
1069	0	3	29	1	4
1070	0	3	29.5	1.5	4
1071	0	3	29.5	1	4.5
1072	0	3	29	1.5	4.5
1073	0	3	30.5	0	3.5
1074	0	3	30	0.5	3.5
1075	0	3	31	0.5	3.5
1076	0	3	30.5	1	3.5
1077	0	3	30	1.5	3.5
1078	0	3	31	1.5	3.5
1079	0	3	30	0	4
1080	0	3	30.5	0.5	4
1081	0	3	30.5	0	4.5
1082	0	3	30	0.5	4.5
1083	0	3	31	0	4
1084	0	3	31	0.5	4.5
1085	0	3	30	1	4
1086	0	3	30.5	1.5	4
1087	0	3	30.5	1	4.5
1088	0	3	30	1.5	4.5
1089	0	3	31	1	4
1090	0	3	31	1.5	4.5
1091	0	3	29.5	2	3.5
1092	0	3	29	2.5	3.5
1093	0	3	29.5	3	3.5
1094	0	3	29	2	4
1095	0	3	29.5	2.5	4
1096	0	3	29.5	2	4.5
1097	0	3	29	2.5	4.5
1098	0	3	29	3	4
1099	0	3	29.5	3	4.5
1100	0	3	30.5	2	3.5
1101	0	3	30	2.5	3.5
1102	0	3	31	2.5	3.5
1103	0	3	30.5	3	3.5
1104	0	3	30	2	4
1105	0	3	30.5	2.5	4
1106	0	3	30.5	2	4.5
1107	0	3	30	2.5	4.5
1108	0	3	31	2	4
1109	0	3	31	2.5	4.5
1110	0	3	30	3	4
1111	0	3	30.5	3	4.5
1112	0	3	31	3	4
1113	0	3	29	3.5	3.5
1114	0	3	29.5	4	3.5
1115	0	3	29	4.5	3.5
1116	0	3	29.5	3.5	4
1117	0	3	29	3.5	4.5
1118	0	3	29	4	4
1119	0	3	29.5	4.5	4
1120	0	3	29.5	4	4.5
1121	0	3	29	4.5	4.5
1122	0	3	30	3.5	3.5
1123	0	3	31	3.5	3.5
1124	0	3	30.5	4	3.5
1125	0	3	30	4.5	3.5
1126	0	3	31	4.5	3.5
1127	0	3	30.5	3.5	4
1128	0	3	30	3.5	4.5
1129	0	3	31	3.5	4.5
1130	0	3	30	4	4
1131	0	3	30.5	4.5	4
1132	0	3	30.5	4	4.5
1133	0	3	30	4.5	4.5
1134	0	3	31	4	4
1135	0	3	31	4.5	4.5
1136	0	3	29.5	5	3.5
1137	0	3	29	5.5	3.5
1138	0	3	29.5	6	3.5
1139	0	3	29	6.5	3.5
1140	0	3	29	5	4
1141	0	3	29.5	5.5	4
1142	0	3	29.5	5	4.5
1143	0	3	29	5.5	4.5
1144	0	3	29	6	4
1145	0	3	29.5	6.5	4
1146	0	3	29.5	6	4.5
1147	0	3	29	6.5	4.5
1148	0	3	30.5	5	3.5
1149	0	3	30	5.5	3.5
1150	0	3	31	5.5	3.5
1151	0	3	30.5	6	3.5
1152	0	3	30	6.5	3.5
1153	0	3	31	6.5	3.5
1154	0	3	30	5	4
1155	0	3	30.5	5.5	4
1156	0	3	30.5	5	4.5
1157	0	3	30	5.5	4.5
1158	0	3	31	5	4
1159	0	3	31	5.5	4.5
1160	0	3	30	6	4
1161	0	3	30.5	6.5	4
1162	0	3	30.5	6	4.5
1163	0	3	30	6.5	4.5
1164	0	3	31	6	4
1165	0	3	31	6.5	4.5
1166	0	3	29.5	7	3.5
1167	0	3	29	7.5	3.5
1168	0	3	29.5	8	3.5
1169	0	3	29	7	4
1170	0	3	29.5	7.5	4
1171	0	3	29.5	7	4.5
1172	0	3	29	7.5	4.5
1173	0	3	29	8	4
1174	0	3	29.5	8	4.5
1175	0	3	30.5	7	3.5
1176	0	3	30	7.5	3.5
1177	0	3	31	7.5	3.5
1178	0	3	30.5	8	3.5
1179	0	3	30	7	4
1180	0	3	30.5	7.5	4
1181	0	3	30.5	7	4.5
1182	0	3	30	7.5	4.5
1183	0	3	31	7	4
1184	0	3	31	7.5	4.5
1185	0	3	30	8	4
1186	0	3	30.5	8	4.5
1187	0	3	31	8	4
1188	0	3	29	8.5	3.5
1189	0	3	29.5	9	3.5
1190	0	3	29	9.5	3.5
1191	0	3	29.5	8.5	4
1192	0	3	29	8.5	4.5
1193	0	3	29	9	4
1194	0	3	29.5	9.5	4
1195	0	3	29.5	9	4.5
1196	0	3	29	9.5	4.5
1197	0	3	30	8.5	3.5
1198	0	3	31	8.5	3.5
1199	0	3	30.5	9	3.5
1200	0	3	30	9.5	3.5
1201	0	3	31	9.5	3.5
1202	0	3	30.5	8.5	4
1203	0	3	30	8.5	4.5
1204	0	3	31	8.5	4.5
1205	0	3	30	9	4
1206	0	3	30.5	9.5	4
1207	0	3	30.5	9	4.5
1208	0	3	30	9.5	4.5
1209	0	3	31	9	4
1210	0	3	31	9.5	4.5
1211	0	3	29.5	10	3.5
1212	0	3	29	10.5	3.5
1213	0	3	29.5	11	3.5
1214	0	3	29	11.5	3.5
1215	0	3	29	10	4
1216	0	3	29.5	10.5	4
1217	0	3	29.5	10	4.5
1218	0	3	29	10.5	4.5
1219	0	3	29	11	4
1220	0	3	29.5	11.5	4
1221	0	3	29.5	11	4.5
1222	0	3	29	11.5	4.5
1223	0	3	30.5	10	3.5
1224	0	3	30	10.5	3.5
1225	0	3	31	10.5	3.5
1226	0	3	30.5	11	3.5
1227	0	3	30	11.5	3.5
1228	0	3	31	11.5	3.5
1229	0	3	30	10	4
1230	0	3	30.5	10.5	4
1231	0	3	30.5	10	4.5
1232	0	3	30	10.5	4.5
1233	0	3	31	10	4
1234	0	3	31	10.5	4.5
1235	0	3	30	11	4
1236	0	3	30.5	11.5	4
1237	0	3	30.5	11	4.5
1238	0	3	30	11.5	4.5
1239	0	3	31	11	4
1240	0	3	31	11.5	4.5
1241	0	3	29.5	12	3.5
1242	0	3	29	12.5	3.5
1243	0	3	29.5	13	3.5
1244	0	3	29	12	4
1245	0	3	29.5	12.5	4
1246	0	3	29.5	12	4.5
1247	0	3	29	12.5	4.5
1248	0	3	29	13	4
1249	0	3	29.5	13	4.5
1250	0	3	30.5	12	3.5
1251	0	3	30	12.5	3.5
1252	0	3	31	12.5	3.5
1253	0	3	30.5	13	3.5
1254	0	3	30	12	4
1255	0	3	30.5	12.5	4
1256	0	3	30.5	12	4.5
1257	0	3	30	12.5	4.5
1258	0	3	31	12	4
1259	0	3	31	12.5	4.5
1260	0	3	30	13	4
1261	0	3	30.5	13	4.5
1262	0	3	31	13	4
1263	0	3	29	13.5	3.5
1264	0	3	29.5	14	3.5
1265	0	3	29	14.5	3.5
1266	0	3	29.5	13.5	4
1267	0	3	29	13.5	4.5
1268	0	3	29	14	4
1269	0	3	29.5	14.5	4
1270	0	3	29.5	14	4.5
1271	0	3	29	14.5	4.5
1272	0	3	30	13.5	3.5
1273	0	3	31	13.5	3.5
1274	0	3	30.5	14	3.5
1275	0	3	30	14.5	3.5
1276	0	3	31	14.5	3.5
1277	0	3	30.5	13.5	4
1278	0	3	30	13.5	4.5
1279	0	3	31	13.5	4.5
1280	0	3	30	14	4
1281	0	3	30.5	14.5	4
1282	0	3	30.5	14	4.5
1283	0	3	30	14.5	4.5
1284	0	3	31	14	4
1285	0	3	31	14.5	4.5
1286	0	3	29.5	15	3.5
1287	0	3	29	15.5	3.5
1288	0	3	29.5	16	3.5
1289	0	3	29	16.5	3.5
1290	0	3	29	15	4
1291	0	3	29.5	15.5	4
1292	0	3	29.5	15	4.5
1293	0	3	29	15.5	4.5
1294	0	3	29	16	4
1295	0	3	29.5	16.5	4
1296	0	3	29.5	16	4.5
1297	0	3	29	16.5	4.5
1298	0	3	30.5	15	3.5
1299	0	3	30	15.5	3.5
1300	0	3	31	15.5	3.5
1301	0	3	30.5	16	3.5
1302	0	3	30	16.5	3.5
1303	0	3	31	16.5	3.5
1304	0	3	30	15	4
1305	0	3	30.5	15.5	4
1306	0	3	30.5	15	4.5
1307	0	3	30	15.5	4.5
1308	0	3	31	15	4
1309	0	3	31	15.5	4.5
1310	0	3	30	16	4
1311	0	3	30.5	16.5	4
1312	0	3	30.5	16	4.5
1313	0	3	30	16.5	4.5
1314	0	3	31	16	4
1315	0	3	31	16.5	4.5
1316	0	3	29.5	17	3.5
1317	0	3	29	17.5	3.5
1318	0	3	29.5	18	3.5
1319	0	3	29	17	4
1320	0	3	29.5	17.5	4
1321	0	3	29.5	17	4.5
1322	0	3	29	17.5	4.5
1323	0	3	29	18	4
1324	0	3	29.5	18	4.5
1325	0	3	30.5	17	3.5
1326	0	3	30	17.5	3.5
1327	0	3	31	17.5	3.5
1328	0	3	30.5	18	3.5
1329	0	3	30	17	4
1330	0	3	30.5	17.5	4
1331	0	3	30.5	17	4.5
1332	0	3	30	17.5	4.5
1333	0	3	31	17	4
1334	0	3	31	17.5	4.5
1335	0	3	30	18	4
1336	0	3	30.5	18	4.5
1337	0	3	31	18	4
1338	0	3	29	18.5	3.5
1339	0	3	29.5	19	3.5
1340	0	3	29	19.5	3.5
1341	0	3	29.5	18.5	4
1342	0	3	29	18.5	4.5
1343	0	3	29	19	4
1344	0	3	29.5	19.5	4
1345	0	3	29.5	19	4.5
1346	0	3	29	19.5	4.5
1347	0	3	30	18.5	3.5
1348	0	3	31	18.5	3.5
1349	0	3	30.5	19	3.5
1350	0	3	30	19.5	3.5
1351	0	3	31	19.5	3.5
1352	0	3	30.5	18.5	4
1353	0	3	30	18.5	4.5
1354	0	3	31	18.5	4.5
1355	0	3	30	19	4
1356	0	3	30.5	19.5	4
1357	0	3	30.5	19	4.5
1358	0	3	30	19.5	4.5
1359	0	3	31	19	4
1360	0	3	31	19.5	4.5
1361	0	3	29.5	20	3.5
1362	0	3	29	20.5	3.5
1363	0	3	29.5	21	3.5
1364	0	3	29	21.5	3.5
1365	0	3	29	20	4
1366	0	3	29.5	20.5	4
1367	0	3	29.5	20	4.5
1368	0	3	29	20.5	4.5
1369	0	3	29	21	4
1370	0	3	29.5	21.5	4
1371	0	3	29.5	21	4.5
1372	0	3	29	21.5	4.5
1373	0	3	30.5	20	3.5
1374	0	3	30	20.5	3.5
1375	0	3	31	20.5	3.5
1376	0	3	30.5	21	3.5
1377	0	3	30	21.5	3.5
1378	0	3	31	21.5	3.5
1379	0	3	30	20	4
1380	0	3	30.5	20.5	4
1381	0	3	30.5	20	4.5
1382	0	3	30	20.5	4.5
1383	0	3	31	20	4
1384	0	3	31	20.5	4.5
1385	0	3	30	21	4
1386	0	3	30.5	21.5	4
1387	0	3	30.5	21	4.5
1388	0	3	30	21.5	4.5
1389	0	3	31	21	4
1390	0	3	31	21.5	4.5
1391	0	3	29.5	22	3.5
1392	0	3	29	22.5	3.5
1393	0	3	29.5	23	3.5
1394	0	3	29	22	4
1395	0	3	29.5	22.5	4
1396	0	3	29.5	22	4.5
1397	0	3	29	22.5	4.5
1398	0	3	29	23	4
1399	0	3	29.5	23	4.5
1400	0	3	30.5	22	3.5
1401	0	3	30	22.5	3.5
1402	0	3	31	22.5	3.5
1403	0	3	30.5	23	3.5
1404	0	3	30	22	4
1405	0	3	30.5	22.5	4
1406	0	3	30.5	22	4.5
1407	0	3	30	22.5	4.5
1408	0	3	31	22	4
1409	0	3	31	22.5	4.5
1410	0	3	30	23	4
1411	0	3	30.5	23	4.5
1412	0	3	31	23	4
1413	0	3	29	23.5	3.5
1414	0	3	29.5	24	3.5
1415	0	3	29	24.5	3.5
1416	0	3	29.5	23.5	4
1417	0	3	29	23.5	4.5
1418	0	3	29	24	4
1419	0	3	29.5	24.5	4
1420	0	3	29.5	24	4.5
1421	0	3	29	24.5	4.5
1422	0	3	30	23.5	3.5
1423	0	3	31	23.5	3.5
1424	0	3	30.5	24	3.5
1425	0	3	30	24.5	3.5
1426	0	3	31	24.5	3.5
1427	0	3	30.5	23.5	4
1428	0	3	30	23.5	4.5
1429	0	3	31	23.5	4.5
1430	0	3	30	24	4
1431	0	3	30.5	24.5	4
1432	0	3	30.5	24	4.5
1433	0	3	30	24.5	4.5
1434	0	3	31	24	4
1435	0	3	31	24.5	4.5
1436	0	3	29.5	25	3.5
1437	0	3	29	25.5	3.5
1438	0	3	29.5	26	3.5
1439	0	3	29	26.5	3.5
1440	0	3	29	25	4
1441	0	3	29.5	25.5	4
1442	0	3	29.5	25	4.5
1443	0	3	29	25.5	4.5
1444	0	3	29	26	4
1445	0	3	29.5	26.5	4
1446	0	3	29.5	26	4.5
1447	0	3	29	26.5	4.5
1448	0	3	30.5	25	3.5
1449	0	3	30	25.5	3.5
1450	0	3	31	25.5	3.5
1451	0	3	30.5	26	3.5
1452	0	3	30	26.5	3.5
1453	0	3	31	26.5	3.5
1454	0	3	30	25	4
1455	0	3	30.5	25.5	4
1456	0	3	30.5	25	4.5
1457	0	3	30	25.5	4.5
1458	0	3	31	25	4
1459	0	3	31	25.5	4.5
1460	0	3	30	26	4
1461	0	3	30.5	26.5	4
1462	0	3	30.5	26	4.5
1463	0	3	30	26.5	4.5
1464	0	3	31	26	4
1465	0	3	31	26.5	4.5
1466	0	3	29.5	27	3.5
1467	0	3	29	27.5	3.5
1468	0	3	29.5	28	3.5
1469	0	3	29	27	4
1470	0	3	29.5	27.5	4
1471	0	3	29.5	27	4.5
1472	0	3	29	27.5	4.5
1473	0	3	29	28	4
1474	0	3	29.5	28	4.5
1475	0	3	30.5	27	3.5
1476	0	3	30	27.5	3.5
1477	0	3	31	27.5	3.5
1478	0	3	30.5	28	3.5
1479	0	3	30	27	4
1480	0	3	30.5	27.5	4
1481	0	3	30.5	27	4.5
1482	0	3	30	27.5	4.5
1483	0	3	31	27	4
1484	0	3	31	27.5	4.5
1485	0	3	30	28	4
1486	0	3	30.5	28	4.5
1487	0	3	31	28	4
1488	0	3	29	28.5	3.5
1489	0	3	29.5	29	3.5
1490	0	3	29	29.5	3.5
1491	0	3	29.5	28.5	4
1492	0	3	29	28.5	4.5
1493	0	3	29	29	4
1494	0	3	29.5	29.5	4
1495	0	3	29.5	29	4.5
1496	0	3	29	29.5	4.5
1497	0	3	30	28.5	3.5
1498	0	3	31	28.5	3.5
1499	0	3	30.5	29	3.5
1500	0	3	30	29.5	3.5
1501	0	3	31	29.5	3.5
1502	0	3	30.5	28.5	4
1503	0	3	30	28.5	4.5
1504	0	3	31	28.5	4.5
1505	0	3	30	29	4
1506	0	3	30.5	29.5	4
1507	0	3	30.5	29	4.5
1508	0	3	30	29.5	4.5
1509	0	3	31	29	4
1510	0	3	31	29.5	4.5
1511	0	3	29	0	5
1512	0	3	29.5	0.5	5
1513	0	3	29.5	0	5.5
1514	0	3	29	0.5	5.5
1515	0	3	29	1	5
1516	0	3	29.5	1.5	5
1517	0	3	29.5	1	5.5
1518	0	3	29	1.5	5.5
1519	0	3	29	0	6
1520	0	3	29.5	0.5	6
1521	0	3	29.5	0	6.5
1522	0	3	29	0.5	6.5
1523	0	3	29	1	6
1524	0	3	29.5	1.5	6
1525	0	3	29.5	1	6.5
1526	0	3	29	1.5	6.5
1527	0	3	30	0	5
1528	0	3	30.5	0.5	5
1529	0	3	30.5	0	5.5
1530	0	3	30	0.5	5.5
1531	0	3	31	0	5
1532	0	3	31	0.5	5.5
1533	0	3	30	1	5
1534	0	3	30.5	1.5	5
1535	0	3	30.5	1	5.5
1536	0	3	30	1.5	5.5
1537	0	3	31	1	5
1538	0	3	31	1.5	5.5
1539	0	3	30	0	6
1540	0	3	30.5	0.5	6
1541	0	3	30.5	0	6.5
1542	0	3	30	0.5	6.5
1543	0	3	31	0	6
1544	0	3	31	0.5	6.5
1545	0	3	30	1	6
1546	0	3	30.5	1.5	6
1547	0	3	30.5	1	6.5
1548	0	3	30	1.5	6.5
1549	0	3	31	1	6
1550	0	3	31	1.5	6.5
1551	0	3	29	2	5
1552	0	3	29.5	2.5	5
1553	0	3	29.5	2	5.5
1554	0	3	29	2.5	5.5
1555	0	3	29	3	5
1556	0	3	29.5	3	5.5
1557	0	3	29	2	6
1558	0	3	29.5	2.5	6
1559	0	3	29.5	2	6.5
1560	0	3	29	2.5	6.5
1561	0	3	29	3	6
1562	0	3	29.5	3	6.5
1563	0	3	30	2	5
1564	0	3	30.5	2.5	5
1565	0	3	30.5	2	5.5
1566	0	3	30	2.5	5.5
1567	0	3	31	2	5
1568	0	3	31	2.5	5.5
1569	0	3	30	3	5
1570	0	3	30.5	3	5.5
1571	0	3	31	3	5
1572	0	3	30	2	6
1573	0	3	30.5	2.5	6
1574	0	3	30.5	2	6.5
1575	0	3	30	2.5	6.5
1576	0	3	31	2	6
1577	0	3	31	2.5	6.5
1578	0	3	30	3	6
1579	0	3	30.5	3	6.5
1580	0	3	31	3	6
1581	0	3	29.5	3.5	5
1582	0	3	29	3.5	5.5
1583	0	3	29	4	5
1584	0	3	29.5	4.5	5
1585	0	3	29.5	4	5.5
1586	0	3	29	4.5	5.5
1587	0	3	29.5	3.5	6
1588	0	3	29	3.5	6.5
1589	0	3	29	4	6