LAMMPS description of a ten-mer

10 atoms
9 bonds
0 angles
0 dihedrals
0 impropers

3 atom types
1 bond types

0 60 xlo xhi
0 60 xlo xhi
0 60 xlo xhi
0 0 0 xy xz yz

Masses

1 1.0
2 1.0
3 1.0

Pair Coeffs

1 2.5 1 3
2 2.5 1 3
3 3 1 3

Bond Coeffs

1 2 0.5

Atoms

1	1	1	28.244743	23.043302	6.017465	
2	1	2	27.631726	22.378644	6.444595	
3	1	2	28.620718	22.292181	6.564674	
4	1	2	28.255300	21.366921	6.462875	
5	1	2	27.890555	20.672686	7.083358	
6	1	2	28.866689	20.456403	7.063790	
7	1	2	28.634743	20.419337	6.091768	
8	1	2	28.886019	21.076715	5.381336	
9	1	2	28.855964	21.077919	4.381788	
10	1	2	27.218143	22.009865	4.364354	

Bonds

1	1	1	2	
2	1	2	3	
3	1	3	4	
4	1	4	5	
5	1	5	6	
6	1	6	7	
7	1	7	8	
8	1	8	9	
9	1	9	10