LAMMPS description of a ten-mer

15897 atoms
19 bonds
0 angles
0 dihedrals
0 impropers

3 atom types
1 bond types

0 60 xlo xhi
0 40 ylo yhi
0 40 zlo zhi

Masses

1 1.0
2 1.0
3 1.0

Pair Coeffs

1 2.5 1
2 2.5 1
3 0.3 1 1.12 

Bond Coeffs

1 2 0.5

Atoms

1	1	1	22 15 15
2	1	2	21 15 15	
3	1	2	20	15 15
4	1	2	19	15 15
5	1	2	18	15 15
6	1	2	17	15 15
7	1	2	16	15 15
8	1	2	15 15 15
9	1	2	14 15 15
10	1	2	13 15 15
11  1   2   12 15 15
12  1   2   11 15 15
13  1   2   10 15 15
14  1   2   9 15 15
15  1   2   8 15 15
16  1   2   7 15 15
17  1   2   6 15 15
18  1   2   5 15 15
19  1   2   4 15 15
20  1   2   3 15 15
21	0	3	29	0	0
22	0	3	29.5	0.5	0
23	0	3	29.5	0	0.5
24	0	3	29	0.5	0.5
25	0	3	30	0	0
26	0	3	30.5	0.5	0
27	0	3	30.5	0	0.5
28	0	3	30	0.5	0.5
29	0	3	31	0	0
30	0	3	31	0.5	0.5
31	0	3	29	1	0
32	0	3	29.5	1.5	0
33	0	3	29.5	1	0.5
34	0	3	29	1.5	0.5
35	0	3	30	1	0
36	0	3	30.5	1.5	0
37	0	3	30.5	1	0.5
38	0	3	30	1.5	0.5
39	0	3	31	1	0
40	0	3	31	1.5	0.5
41	0	3	29	2	0
42	0	3	29.5	2.5	0
43	0	3	29.5	2	0.5
44	0	3	29	2.5	0.5
45	0	3	30	2	0
46	0	3	30.5	2.5	0
47	0	3	30.5	2	0.5
48	0	3	30	2.5	0.5
49	0	3	31	2	0
50	0	3	31	2.5	0.5
51	0	3	29	3	0
52	0	3	29.5	3.5	0
53	0	3	29.5	3	0.5
54	0	3	29	3.5	0.5
55	0	3	30	3	0
56	0	3	30.5	3.5	0
57	0	3	30.5	3	0.5
58	0	3	30	3.5	0.5
59	0	3	31	3	0
60	0	3	31	3.5	0.5
61	0	3	29	4	0
62	0	3	29.5	4.5	0
63	0	3	29.5	4	0.5
64	0	3	29	4.5	0.5
65	0	3	30	4	0
66	0	3	30.5	4.5	0
67	0	3	30.5	4	0.5
68	0	3	30	4.5	0.5
69	0	3	31	4	0
70	0	3	31	4.5	0.5
71	0	3	29	5	0
72	0	3	29.5	5.5	0
73	0	3	29.5	5	0.5
74	0	3	29	5.5	0.5
75	0	3	30	5	0
76	0	3	30.5	5.5	0
77	0	3	30.5	5	0.5
78	0	3	30	5.5	0.5
79	0	3	31	5	0
80	0	3	31	5.5	0.5
81	0	3	29	6	0
82	0	3	29.5	6.5	0
83	0	3	29.5	6	0.5
84	0	3	29	6.5	0.5
85	0	3	30	6	0
86	0	3	30.5	6.5	0
87	0	3	30.5	6	0.5
88	0	3	30	6.5	0.5
89	0	3	31	6	0
90	0	3	31	6.5	0.5
91	0	3	29	7	0
92	0	3	29.5	7.5	0
93	0	3	29.5	7	0.5
94	0	3	29	7.5	0.5
95	0	3	30	7	0
96	0	3	30.5	7.5	0
97	0	3	30.5	7	0.5
98	0	3	30	7.5	0.5
99	0	3	31	7	0
100	0	3	31	7.5	0.5
101	0	3	29	8	0
102	0	3	29.5	8.5	0
103	0	3	29.5	8	0.5
104	0	3	29	8.5	0.5
105	0	3	30	8	0
106	0	3	30.5	8.5	0
107	0	3	30.5	8	0.5
108	0	3	30	8.5	0.5
109	0	3	31	8	0
110	0	3	31	8.5	0.5
111	0	3	29	9	0
112	0	3	29.5	9.5	0
113	0	3	29.5	9	0.5
114	0	3	29	9.5	0.5
115	0	3	30	9	0
116	0	3	30.5	9.5	0
117	0	3	30.5	9	0.5
118	0	3	30	9.5	0.5
119	0	3	31	9	0
120	0	3	31	9.5	0.5
121	0	3	29	10	0
122	0	3	29.5	10.5	0
123	0	3	29.5	10	0.5
124	0	3	29	10.5	0.5
125	0	3	30	10	0
126	0	3	30.5	10.5	0
127	0	3	30.5	10	0.5
128	0	3	30	10.5	0.5
129	0	3	31	10	0
130	0	3	31	10.5	0.5
131	0	3	29	11	0
132	0	3	29.5	11.5	0
133	0	3	29.5	11	0.5
134	0	3	29	11.5	0.5
135	0	3	30	11	0
136	0	3	30.5	11.5	0
137	0	3	30.5	11	0.5
138	0	3	30	11.5	0.5
139	0	3	31	11	0
140	0	3	31	11.5	0.5
141	0	3	29	12	0
142	0	3	29.5	12.5	0
143	0	3	29.5	12	0.5
144	0	3	29	12.5	0.5
145	0	3	30	12	0
146	0	3	30.5	12.5	0
147	0	3	30.5	12	0.5
148	0	3	30	12.5	0.5
149	0	3	31	12	0
150	0	3	31	12.5	0.5
151	0	3	29	13	0
152	0	3	29.5	13.5	0
153	0	3	29.5	13	0.5
154	0	3	29	13.5	0.5
155	0	3	30	13	0
156	0	3	30.5	13.5	0
157	0	3	30.5	13	0.5
158	0	3	30	13.5	0.5
159	0	3	31	13	0
160	0	3	31	13.5	0.5
161	0	3	29	14	0
162	0	3	29.5	14.5	0
163	0	3	29.5	14	0.5
164	0	3	29	14.5	0.5
165	0	3	30	14	0
166	0	3	30.5	14.5	0
167	0	3	30.5	14	0.5
168	0	3	30	14.5	0.5
169	0	3	31	14	0
170	0	3	31	14.5	0.5
171	0	3	29	15	0
172	0	3	29.5	15.5	0
173	0	3	29.5	15	0.5
174	0	3	29	15.5	0.5
175	0	3	30	15	0
176	0	3	30.5	15.5	0
177	0	3	30.5	15	0.5
178	0	3	30	15.5	0.5
179	0	3	31	15	0
180	0	3	31	15.5	0.5
181	0	3	29	16	0
182	0	3	29.5	16.5	0
183	0	3	29.5	16	0.5
184	0	3	29	16.5	0.5
185	0	3	30	16	0
186	0	3	30.5	16.5	0
187	0	3	30.5	16	0.5
188	0	3	30	16.5	0.5
189	0	3	31	16	0
190	0	3	31	16.5	0.5
191	0	3	29	17	0
192	0	3	29.5	17.5	0
193	0	3	29.5	17	0.5
194	0	3	29	17.5	0.5
195	0	3	30	17	0
196	0	3	30.5	17.5	0
197	0	3	30.5	17	0.5
198	0	3	30	17.5	0.5
199	0	3	31	17	0
200	0	3	31	17.5	0.5
201	0	3	29	18	0
202	0	3	29.5	18.5	0
203	0	3	29.5	18	0.5
204	0	3	29	18.5	0.5
205	0	3	30	18	0
206	0	3	30.5	18.5	0
207	0	3	30.5	18	0.5
208	0	3	30	18.5	0.5
209	0	3	31	18	0
210	0	3	31	18.5	0.5
211	0	3	29	19	0
212	0	3	29.5	19.5	0
213	0	3	29.5	19	0.5
214	0	3	29	19.5	0.5
215	0	3	30	19	0
216	0	3	30.5	19.5	0
217	0	3	30.5	19	0.5
218	0	3	30	19.5	0.5
219	0	3	31	19	0
220	0	3	31	19.5	0.5
221	0	3	29	20	0
222	0	3	29.5	20.5	0
223	0	3	29.5	20	0.5
224	0	3	29	20.5	0.5
225	0	3	30	20	0
226	0	3	30.5	20.5	0
227	0	3	30.5	20	0.5
228	0	3	30	20.5	0.5
229	0	3	31	20	0
230	0	3	31	20.5	0.5
231	0	3	29	21	0
232	0	3	29.5	21.5	0
233	0	3	29.5	21	0.5
234	0	3	29	21.5	0.5
235	0	3	30	21	0
236	0	3	30.5	21.5	0
237	0	3	30.5	21	0.5
238	0	3	30	21.5	0.5
239	0	3	31	21	0
240	0	3	31	21.5	0.5
241	0	3	29	22	0
242	0	3	29.5	22.5	0
243	0	3	29.5	22	0.5
244	0	3	29	22.5	0.5
245	0	3	30	22	0
246	0	3	30.5	22.5	0
247	0	3	30.5	22	0.5
248	0	3	30	22.5	0.5
249	0	3	31	22	0
250	0	3	31	22.5	0.5
251	0	3	29	23	0
252	0	3	29.5	23.5	0
253	0	3	29.5	23	0.5
254	0	3	29	23.5	0.5
255	0	3	30	23	0
256	0	3	30.5	23.5	0
257	0	3	30.5	23	0.5
258	0	3	30	23.5	0.5
259	0	3	31	23	0
260	0	3	31	23.5	0.5
261	0	3	29	24	0
262	0	3	29.5	24.5	0
263	0	3	29.5	24	0.5
264	0	3	29	24.5	0.5
265	0	3	30	24	0
266	0	3	30.5	24.5	0
267	0	3	30.5	24	0.5
268	0	3	30	24.5	0.5
269	0	3	31	24	0
270	0	3	31	24.5	0.5
271	0	3	29	25	0
272	0	3	29.5	25.5	0
273	0	3	29.5	25	0.5
274	0	3	29	25.5	0.5
275	0	3	30	25	0
276	0	3	30.5	25.5	0
277	0	3	30.5	25	0.5
278	0	3	30	25.5	0.5
279	0	3	31	25	0
280	0	3	31	25.5	0.5
281	0	3	29	26	0
282	0	3	29.5	26.5	0
283	0	3	29.5	26	0.5
284	0	3	29	26.5	0.5
285	0	3	30	26	0
286	0	3	30.5	26.5	0
287	0	3	30.5	26	0.5
288	0	3	30	26.5	0.5
289	0	3	31	26	0
290	0	3	31	26.5	0.5
291	0	3	29	27	0
292	0	3	29.5	27.5	0
293	0	3	29.5	27	0.5
294	0	3	29	27.5	0.5
295	0	3	30	27	0
296	0	3	30.5	27.5	0
297	0	3	30.5	27	0.5
298	0	3	30	27.5	0.5
299	0	3	31	27	0
300	0	3	31	27.5	0.5
301	0	3	29	28	0
302	0	3	29.5	28.5	0
303	0	3	29.5	28	0.5
304	0	3	29	28.5	0.5
305	0	3	30	28	0
306	0	3	30.5	28.5	0
307	0	3	30.5	28	0.5
308	0	3	30	28.5	0.5
309	0	3	31	28	0
310	0	3	31	28.5	0.5
311	0	3	29	29	0
312	0	3	29.5	29.5	0
313	0	3	29.5	29	0.5
314	0	3	29	29.5	0.5
315	0	3	30	29	0
316	0	3	30.5	29.5	0
317	0	3	30.5	29	0.5
318	0	3	30	29.5	0.5
319	0	3	31	29	0
320	0	3	31	29.5	0.5
321	0	3	29	30	0
322	0	3	29.5	30.5	0
323	0	3	29.5	30	0.5
324	0	3	29	30.5	0.5
325	0	3	30	30	0
326	0	3	30.5	30.5	0
327	0	3	30.5	30	0.5
328	0	3	30	30.5	0.5
329	0	3	31	30	0
330	0	3	31	30.5	0.5
331	0	3	29	31	0
332	0	3	29.5	31.5	0
333	0	3	29.5	31	0.5
334	0	3	29	31.5	0.5
335	0	3	30	31	0
336	0	3	30.5	31.5	0
337	0	3	30.5	31	0.5
338	0	3	30	31.5	0.5
339	0	3	31	31	0
340	0	3	31	31.5	0.5
341	0	3	29	32	0
342	0	3	29.5	32.5	0
343	0	3	29.5	32	0.5
344	0	3	29	32.5	0.5
345	0	3	30	32	0
346	0	3	30.5	32.5	0
347	0	3	30.5	32	0.5
348	0	3	30	32.5	0.5
349	0	3	31	32	0
350	0	3	31	32.5	0.5
351	0	3	29	33	0
352	0	3	29.5	33.5	0
353	0	3	29.5	33	0.5
354	0	3	29	33.5	0.5
355	0	3	30	33	0
356	0	3	30.5	33.5	0
357	0	3	30.5	33	0.5
358	0	3	30	33.5	0.5
359	0	3	31	33	0
360	0	3	31	33.5	0.5
361	0	3	29	34	0
362	0	3	29.5	34.5	0
363	0	3	29.5	34	0.5
364	0	3	29	34.5	0.5
365	0	3	30	34	0
366	0	3	30.5	34.5	0
367	0	3	30.5	34	0.5
368	0	3	30	34.5	0.5
369	0	3	31	34	0
370	0	3	31	34.5	0.5
371	0	3	29	35	0
372	0	3	29.5	35.5	0
373	0	3	29.5	35	0.5
374	0	3	29	35.5	0.5
375	0	3	30	35	0
376	0	3	30.5	35.5	0
377	0	3	30.5	35	0.5
378	0	3	30	35.5	0.5
379	0	3	31	35	0
380	0	3	31	35.5	0.5
381	0	3	29	36	0
382	0	3	29.5	36.5	0
383	0	3	29.5	36	0.5
384	0	3	29	36.5	0.5
385	0	3	30	36	0
386	0	3	30.5	36.5	0
387	0	3	30.5	36	0.5
388	0	3	30	36.5	0.5
389	0	3	31	36	0
390	0	3	31	36.5	0.5
391	0	3	29	37	0
392	0	3	29.5	37.5	0
393	0	3	29.5	37	0.5
394	0	3	29	37.5	0.5
395	0	3	30	37	0
396	0	3	30.5	37.5	0
397	0	3	30.5	37	0.5
398	0	3	30	37.5	0.5
399	0	3	31	37	0
400	0	3	31	37.5	0.5
401	0	3	29	38	0
402	0	3	29.5	38.5	0
403	0	3	29.5	38	0.5
404	0	3	29	38.5	0.5
405	0	3	30	38	0
406	0	3	30.5	38.5	0
407	0	3	30.5	38	0.5
408	0	3	30	38.5	0.5
409	0	3	31	38	0
410	0	3	31	38.5	0.5
411	0	3	29	39	0
412	0	3	29.5	39.5	0
413	0	3	29.5	39	0.5
414	0	3	29	39.5	0.5
415	0	3	30	39	0
416	0	3	30.5	39.5	0
417	0	3	30.5	39	0.5
418	0	3	30	39.5	0.5
419	0	3	31	39	0
420	0	3	31	39.5	0.5
421	0	3	29	0	1
422	0	3	29.5	0.5	1
423	0	3	29.5	0	1.5
424	0	3	29	0.5	1.5
425	0	3	30	0	1
426	0	3	30.5	0.5	1
427	0	3	30.5	0	1.5
428	0	3	30	0.5	1.5
429	0	3	31	0	1
430	0	3	31	0.5	1.5
431	0	3	29	1	1
432	0	3	29.5	1.5	1
433	0	3	29.5	1	1.5
434	0	3	29	1.5	1.5
435	0	3	30	1	1
436	0	3	30.5	1.5	1
437	0	3	30.5	1	1.5
438	0	3	30	1.5	1.5
439	0	3	31	1	1
440	0	3	31	1.5	1.5
441	0	3	29	2	1
442	0	3	29.5	2.5	1
443	0	3	29.5	2	1.5
444	0	3	29	2.5	1.5
445	0	3	30	2	1
446	0	3	30.5	2.5	1
447	0	3	30.5	2	1.5
448	0	3	30	2.5	1.5
449	0	3	31	2	1
450	0	3	31	2.5	1.5
451	0	3	29	3	1
452	0	3	29.5	3.5	1
453	0	3	29.5	3	1.5
454	0	3	29	3.5	1.5
455	0	3	30	3	1
456	0	3	30.5	3.5	1
457	0	3	30.5	3	1.5
458	0	3	30	3.5	1.5
459	0	3	31	3	1
460	0	3	31	3.5	1.5
461	0	3	29	4	1
462	0	3	29.5	4.5	1
463	0	3	29.5	4	1.5
464	0	3	29	4.5	1.5
465	0	3	30	4	1
466	0	3	30.5	4.5	1
467	0	3	30.5	4	1.5
468	0	3	30	4.5	1.5
469	0	3	31	4	1
470	0	3	31	4.5	1.5
471	0	3	29	5	1
472	0	3	29.5	5.5	1
473	0	3	29.5	5	1.5
474	0	3	29	5.5	1.5
475	0	3	30	5	1
476	0	3	30.5	5.5	1
477	0	3	30.5	5	1.5
478	0	3	30	5.5	1.5
479	0	3	31	5	1
480	0	3	31	5.5	1.5
481	0	3	29	6	1
482	0	3	29.5	6.5	1
483	0	3	29.5	6	1.5
484	0	3	29	6.5	1.5
485	0	3	30	6	1
486	0	3	30.5	6.5	1
487	0	3	30.5	6	1.5
488	0	3	30	6.5	1.5
489	0	3	31	6	1
490	0	3	31	6.5	1.5
491	0	3	29	7	1
492	0	3	29.5	7.5	1
493	0	3	29.5	7	1.5
494	0	3	29	7.5	1.5
495	0	3	30	7	1
496	0	3	30.5	7.5	1
497	0	3	30.5	7	1.5
498	0	3	30	7.5	1.5
499	0	3	31	7	1
500	0	3	31	7.5	1.5
501	0	3	29	8	1
502	0	3	29.5	8.5	1
503	0	3	29.5	8	1.5
504	0	3	29	8.5	1.5
505	0	3	30	8	1
506	0	3	30.5	8.5	1
507	0	3	30.5	8	1.5
508	0	3	30	8.5	1.5
509	0	3	31	8	1
510	0	3	31	8.5	1.5
511	0	3	29	9	1
512	0	3	29.5	9.5	1
513	0	3	29.5	9	1.5
514	0	3	29	9.5	1.5
515	0	3	30	9	1
516	0	3	30.5	9.5	1
517	0	3	30.5	9	1.5
518	0	3	30	9.5	1.5
519	0	3	31	9	1
520	0	3	31	9.5	1.5
521	0	3	29	10	1
522	0	3	29.5	10.5	1
523	0	3	29.5	10	1.5
524	0	3	29	10.5	1.5
525	0	3	30	10	1
526	0	3	30.5	10.5	1
527	0	3	30.5	10	1.5
528	0	3	30	10.5	1.5
529	0	3	31	10	1
530	0	3	31	10.5	1.5
531	0	3	29	11	1
532	0	3	29.5	11.5	1
533	0	3	29.5	11	1.5
534	0	3	29	11.5	1.5
535	0	3	30	11	1
536	0	3	30.5	11.5	1
537	0	3	30.5	11	1.5
538	0	3	30	11.5	1.5
539	0	3	31	11	1
540	0	3	31	11.5	1.5
541	0	3	29	12	1
542	0	3	29.5	12.5	1
543	0	3	29.5	12	1.5
544	0	3	29	12.5	1.5
545	0	3	30	12	1
546	0	3	30.5	12.5	1
547	0	3	30.5	12	1.5
548	0	3	30	12.5	1.5
549	0	3	31	12	1
550	0	3	31	12.5	1.5
551	0	3	29	13	1
552	0	3	29.5	13.5	1
553	0	3	29.5	13	1.5
554	0	3	29	13.5	1.5
555	0	3	30	13	1
556	0	3	30.5	13.5	1
557	0	3	30.5	13	1.5
558	0	3	30	13.5	1.5
559	0	3	31	13	1
560	0	3	31	13.5	1.5
561	0	3	29	14	1
562	0	3	29.5	14.5	1
563	0	3	29.5	14	1.5
564	0	3	29	14.5	1.5
565	0	3	30	14	1
566	0	3	30.5	14.5	1
567	0	3	30.5	14	1.5
568	0	3	30	14.5	1.5
569	0	3	31	14	1
570	0	3	31	14.5	1.5
571	0	3	29	15	1
572	0	3	29.5	15.5	1
573	0	3	29.5	15	1.5
574	0	3	29	15.5	1.5
575	0	3	30	15	1
576	0	3	30.5	15.5	1
577	0	3	30.5	15	1.5
578	0	3	30	15.5	1.5
579	0	3	31	15	1
580	0	3	31	15.5	1.5
581	0	3	29	16	1
582	0	3	29.5	16.5	1
583	0	3	29.5	16	1.5
584	0	3	29	16.5	1.5
585	0	3	30	16	1
586	0	3	30.5	16.5	1
587	0	3	30.5	16	1.5
588	0	3	30	16.5	1.5
589	0	3	31	16	1
590	0	3	31	16.5	1.5
591	0	3	29	17	1
592	0	3	29.5	17.5	1
593	0	3	29.5	17	1.5
594	0	3	29	17.5	1.5
595	0	3	30	17	1
596	0	3	30.5	17.5	1
597	0	3	30.5	17	1.5
598	0	3	30	17.5	1.5
599	0	3	31	17	1
600	0	3	31	17.5	1.5
601	0	3	29	18	1
602	0	3	29.5	18.5	1
603	0	3	29.5	18	1.5
604	0	3	29	18.5	1.5
605	0	3	30	18	1
606	0	3	30.5	18.5	1
607	0	3	30.5	18	1.5
608	0	3	30	18.5	1.5
609	0	3	31	18	1
610	0	3	31	18.5	1.5
611	0	3	29	19	1
612	0	3	29.5	19.5	1
613	0	3	29.5	19	1.5
614	0	3	29	19.5	1.5
615	0	3	30	19	1
616	0	3	30.5	19.5	1
617	0	3	30.5	19	1.5
618	0	3	30	19.5	1.5
619	0	3	31	19	1
620	0	3	31	19.5	1.5
621	0	3	29	20	1
622	0	3	29.5	20.5	1
623	0	3	29.5	20	1.5
624	0	3	29	20.5	1.5
625	0	3	30	20	1
626	0	3	30.5	20.5	1
627	0	3	30.5	20	1.5
628	0	3	30	20.5	1.5
629	0	3	31	20	1
630	0	3	31	20.5	1.5
631	0	3	29	21	1
632	0	3	29.5	21.5	1
633	0	3	29.5	21	1.5
634	0	3	29	21.5	1.5
635	0	3	30	21	1
636	0	3	30.5	21.5	1
637	0	3	30.5	21	1.5
638	0	3	30	21.5	1.5
639	0	3	31	21	1
640	0	3	31	21.5	1.5
641	0	3	29	22	1
642	0	3	29.5	22.5	1
643	0	3	29.5	22	1.5
644	0	3	29	22.5	1.5
645	0	3	30	22	1
646	0	3	30.5	22.5	1
647	0	3	30.5	22	1.5
648	0	3	30	22.5	1.5
649	0	3	31	22	1
650	0	3	31	22.5	1.5
651	0	3	29	23	1
652	0	3	29.5	23.5	1
653	0	3	29.5	23	1.5
654	0	3	29	23.5	1.5
655	0	3	30	23	1
656	0	3	30.5	23.5	1
657	0	3	30.5	23	1.5
658	0	3	30	23.5	1.5
659	0	3	31	23	1
660	0	3	31	23.5	1.5
661	0	3	29	24	1
662	0	3	29.5	24.5	1
663	0	3	29.5	24	1.5
664	0	3	29	24.5	1.5
665	0	3	30	24	1
666	0	3	30.5	24.5	1
667	0	3	30.5	24	1.5
668	0	3	30	24.5	1.5
669	0	3	31	24	1
670	0	3	31	24.5	1.5
671	0	3	29	25	1
672	0	3	29.5	25.5	1
673	0	3	29.5	25	1.5
674	0	3	29	25.5	1.5
675	0	3	30	25	1
676	0	3	30.5	25.5	1
677	0	3	30.5	25	1.5
678	0	3	30	25.5	1.5
679	0	3	31	25	1
680	0	3	31	25.5	1.5
681	0	3	29	26	1
682	0	3	29.5	26.5	1
683	0	3	29.5	26	1.5
684	0	3	29	26.5	1.5
685	0	3	30	26	1
686	0	3	30.5	26.5	1
687	0	3	30.5	26	1.5
688	0	3	30	26.5	1.5
689	0	3	31	26	1
690	0	3	31	26.5	1.5
691	0	3	29	27	1
692	0	3	29.5	27.5	1
693	0	3	29.5	27	1.5
694	0	3	29	27.5	1.5
695	0	3	30	27	1
696	0	3	30.5	27.5	1
697	0	3	30.5	27	1.5
698	0	3	30	27.5	1.5
699	0	3	31	27	1
700	0	3	31	27.5	1.5
701	0	3	29	28	1
702	0	3	29.5	28.5	1
703	0	3	29.5	28	1.5
704	0	3	29	28.5	1.5
705	0	3	30	28	1
706	0	3	30.5	28.5	1
707	0	3	30.5	28	1.5
708	0	3	30	28.5	1.5
709	0	3	31	28	1
710	0	3	31	28.5	1.5
711	0	3	29	29	1
712	0	3	29.5	29.5	1
713	0	3	29.5	29	1.5
714	0	3	29	29.5	1.5
715	0	3	30	29	1
716	0	3	30.5	29.5	1
717	0	3	30.5	29	1.5
718	0	3	30	29.5	1.5
719	0	3	31	29	1
720	0	3	31	29.5	1.5
721	0	3	29	30	1
722	0	3	29.5	30.5	1
723	0	3	29.5	30	1.5
724	0	3	29	30.5	1.5
725	0	3	30	30	1
726	0	3	30.5	30.5	1
727	0	3	30.5	30	1.5
728	0	3	30	30.5	1.5
729	0	3	31	30	1
730	0	3	31	30.5	1.5
731	0	3	29	31	1
732	0	3	29.5	31.5	1
733	0	3	29.5	31	1.5
734	0	3	29	31.5	1.5
735	0	3	30	31	1
736	0	3	30.5	31.5	1
737	0	3	30.5	31	1.5
738	0	3	30	31.5	1.5
739	0	3	31	31	1
740	0	3	31	31.5	1.5
741	0	3	29	32	1
742	0	3	29.5	32.5	1
743	0	3	29.5	32	1.5
744	0	3	29	32.5	1.5
745	0	3	30	32	1
746	0	3	30.5	32.5	1
747	0	3	30.5	32	1.5
748	0	3	30	32.5	1.5
749	0	3	31	32	1
750	0	3	31	32.5	1.5
751	0	3	29	33	1
752	0	3	29.5	33.5	1
753	0	3	29.5	33	1.5
754	0	3	29	33.5	1.5
755	0	3	30	33	1
756	0	3	30.5	33.5	1
757	0	3	30.5	33	1.5
758	0	3	30	33.5	1.5
759	0	3	31	33	1
760	0	3	31	33.5	1.5
761	0	3	29	34	1
762	0	3	29.5	34.5	1
763	0	3	29.5	34	1.5
764	0	3	29	34.5	1.5
765	0	3	30	34	1
766	0	3	30.5	34.5	1
767	0	3	30.5	34	1.5
768	0	3	30	34.5	1.5
769	0	3	31	34	1
770	0	3	31	34.5	1.5
771	0	3	29	35	1
772	0	3	29.5	35.5	1
773	0	3	29.5	35	1.5
774	0	3	29	35.5	1.5
775	0	3	30	35	1
776	0	3	30.5	35.5	1
777	0	3	30.5	35	1.5
778	0	3	30	35.5	1.5
779	0	3	31	35	1
780	0	3	31	35.5	1.5
781	0	3	29	36	1
782	0	3	29.5	36.5	1
783	0	3	29.5	36	1.5
784	0	3	29	36.5	1.5
785	0	3	30	36	1
786	0	3	30.5	36.5	1
787	0	3	30.5	36	1.5
788	0	3	30	36.5	1.5
789	0	3	31	36	1
790	0	3	31	36.5	1.5
791	0	3	29	37	1
792	0	3	29.5	37.5	1
793	0	3	29.5	37	1.5
794	0	3	29	37.5	1.5
795	0	3	30	37	1
796	0	3	30.5	37.5	1
797	0	3	30.5	37	1.5
798	0	3	30	37.5	1.5
799	0	3	31	37	1
800	0	3	31	37.5	1.5
801	0	3	29	38	1
802	0	3	29.5	38.5	1
803	0	3	29.5	38	1.5
804	0	3	29	38.5	1.5
805	0	3	30	38	1
806	0	3	30.5	38.5	1
807	0	3	30.5	38	1.5
808	0	3	30	38.5	1.5
809	0	3	31	38	1
810	0	3	31	38.5	1.5
811	0	3	29	39	1
812	0	3	29.5	39.5	1
813	0	3	29.5	39	1.5
814	0	3	29	39.5	1.5
815	0	3	30	39	1
816	0	3	30.5	39.5	1
817	0	3	30.5	39	1.5
818	0	3	30	39.5	1.5
819	0	3	31	39	1
820	0	3	31	39.5	1.5
821	0	3	29	0	2
822	0	3	29.5	0.5	2
823	0	3	29.5	0	2.5
824	0	3	29	0.5	2.5
825	0	3	30	0	2
826	0	3	30.5	0.5	2
827	0	3	30.5	0	2.5
828	0	3	30	0.5	2.5
829	0	3	31	0	2
830	0	3	31	0.5	2.5
831	0	3	29	1	2
832	0	3	29.5	1.5	2
833	0	3	29.5	1	2.5
834	0	3	29	1.5	2.5
835	0	3	30	1	2
836	0	3	30.5	1.5	2
837	0	3	30.5	1	2.5
838	0	3	30	1.5	2.5
839	0	3	31	1	2
840	0	3	31	1.5	2.5
841	0	3	29	2	2
842	0	3	29.5	2.5	2
843	0	3	29.5	2	2.5
844	0	3	29	2.5	2.5
845	0	3	30	2	2
846	0	3	30.5	2.5	2
847	0	3	30.5	2	2.5
848	0	3	30	2.5	2.5
849	0	3	31	2	2
850	0	3	31	2.5	2.5
851	0	3	29	3	2
852	0	3	29.5	3.5	2
853	0	3	29.5	3	2.5
854	0	3	29	3.5	2.5
855	0	3	30	3	2
856	0	3	30.5	3.5	2
857	0	3	30.5	3	2.5
858	0	3	30	3.5	2.5
859	0	3	31	3	2
860	0	3	31	3.5	2.5
861	0	3	29	4	2
862	0	3	29.5	4.5	2
863	0	3	29.5	4	2.5
864	0	3	29	4.5	2.5
865	0	3	30	4	2
866	0	3	30.5	4.5	2
867	0	3	30.5	4	2.5
868	0	3	30	4.5	2.5
869	0	3	31	4	2
870	0	3	31	4.5	2.5
871	0	3	29	5	2
872	0	3	29.5	5.5	2
873	0	3	29.5	5	2.5
874	0	3	29	5.5	2.5
875	0	3	30	5	2
876	0	3	30.5	5.5	2
877	0	3	30.5	5	2.5
878	0	3	30	5.5	2.5
879	0	3	31	5	2
880	0	3	31	5.5	2.5
881	0	3	29	6	2
882	0	3	29.5	6.5	2
883	0	3	29.5	6	2.5
884	0	3	29	6.5	2.5
885	0	3	30	6	2
886	0	3	30.5	6.5	2
887	0	3	30.5	6	2.5
888	0	3	30	6.5	2.5
889	0	3	31	6	2
890	0	3	31	6.5	2.5
891	0	3	29	7	2
892	0	3	29.5	7.5	2
893	0	3	29.5	7	2.5
894	0	3	29	7.5	2.5
895	0	3	30	7	2
896	0	3	30.5	7.5	2
897	0	3	30.5	7	2.5
898	0	3	30	7.5	2.5
899	0	3	31	7	2
900	0	3	31	7.5	2.5
901	0	3	29	8	2
902	0	3	29.5	8.5	2
903	0	3	29.5	8	2.5
904	0	3	29	8.5	2.5
905	0	3	30	8	2
906	0	3	30.5	8.5	2
907	0	3	30.5	8	2.5
908	0	3	30	8.5	2.5
909	0	3	31	8	2
910	0	3	31	8.5	2.5
911	0	3	29	9	2
912	0	3	29.5	9.5	2
913	0	3	29.5	9	2.5
914	0	3	29	9.5	2.5
915	0	3	30	9	2
916	0	3	30.5	9.5	2
917	0	3	30.5	9	2.5
918	0	3	30	9.5	2.5
919	0	3	31	9	2
920	0	3	31	9.5	2.5
921	0	3	29	10	2
922	0	3	29.5	10.5	2
923	0	3	29.5	10	2.5
924	0	3	29	10.5	2.5
925	0	3	30	10	2
926	0	3	30.5	10.5	2
927	0	3	30.5	10	2.5
928	0	3	30	10.5	2.5
929	0	3	31	10	2
930	0	3	31	10.5	2.5
931	0	3	29	11	2
932	0	3	29.5	11.5	2
933	0	3	29.5	11	2.5
934	0	3	29	11.5	2.5
935	0	3	30	11	2
936	0	3	30.5	11.5	2
937	0	3	30.5	11	2.5
938	0	3	30	11.5	2.5
939	0	3	31	11	2
940	0	3	31	11.5	2.5
941	0	3	29	12	2
942	0	3	29.5	12.5	2
943	0	3	29.5	12	2.5
944	0	3	29	12.5	2.5
945	0	3	30	12	2
946	0	3	30.5	12.5	2
947	0	3	30.5	12	2.5
948	0	3	30	12.5	2.5
949	0	3	31	12	2
950	0	3	31	12.5	2.5
951	0	3	29	13	2
952	0	3	29.5	13.5	2
953	0	3	29.5	13	2.5
954	0	3	29	13.5	2.5
955	0	3	30	13	2
956	0	3	30.5	13.5	2
957	0	3	30.5	13	2.5
958	0	3	30	13.5	2.5
959	0	3	31	13	2
960	0	3	31	13.5	2.5
961	0	3	29	14	2
962	0	3	29.5	14.5	2
963	0	3	29.5	14	2.5
964	0	3	29	14.5	2.5
965	0	3	30	14	2
966	0	3	30.5	14.5	2
967	0	3	30.5	14	2.5
968	0	3	30	14.5	2.5
969	0	3	31	14	2
970	0	3	31	14.5	2.5
971	0	3	29	15	2
972	0	3	29.5	15.5	2
973	0	3	29.5	15	2.5
974	0	3	29	15.5	2.5
975	0	3	30	15	2
976	0	3	30.5	15.5	2
977	0	3	30.5	15	2.5
978	0	3	30	15.5	2.5
979	0	3	31	15	2
980	0	3	31	15.5	2.5
981	0	3	29	16	2
982	0	3	29.5	16.5	2
983	0	3	29.5	16	2.5
984	0	3	29	16.5	2.5
985	0	3	30	16	2
986	0	3	30.5	16.5	2
987	0	3	30.5	16	2.5
988	0	3	30	16.5	2.5
989	0	3	31	16	2
990	0	3	31	16.5	2.5
991	0	3	29	17	2
992	0	3	29.5	17.5	2
993	0	3	29.5	17	2.5
994	0	3	29	17.5	2.5
995	0	3	30	17	2
996	0	3	30.5	17.5	2
997	0	3	30.5	17	2.5
998	0	3	30	17.5	2.5
999	0	3	31	17	2
1000	0	3	31	17.5	2.5
1001	0	3	29	18	2
1002	0	3	29.5	18.5	2
1003	0	3	29.5	18	2.5
1004	0	3	29	18.5	2.5
1005	0	3	30	18	2
1006	0	3	30.5	18.5	2
1007	0	3	30.5	18	2.5
1008	0	3	30	18.5	2.5
1009	0	3	31	18	2
1010	0	3	31	18.5	2.5
1011	0	3	29	19	2
1012	0	3	29.5	19.5	2
1013	0	3	29.5	19	2.5
1014	0	3	29	19.5	2.5
1015	0	3	30	19	2
1016	0	3	30.5	19.5	2
1017	0	3	30.5	19	2.5
1018	0	3	30	19.5	2.5
1019	0	3	31	19	2
1020	0	3	31	19.5	2.5
1021	0	3	29	20	2
1022	0	3	29.5	20.5	2
1023	0	3	29.5	20	2.5
1024	0	3	29	20.5	2.5
1025	0	3	30	20	2
1026	0	3	30.5	20.5	2
1027	0	3	30.5	20	2.5
1028	0	3	30	20.5	2.5
1029	0	3	31	20	2
1030	0	3	31	20.5	2.5
1031	0	3	29	21	2
1032	0	3	29.5	21.5	2
1033	0	3	29.5	21	2.5
1034	0	3	29	21.5	2.5
1035	0	3	30	21	2
1036	0	3	30.5	21.5	2
1037	0	3	30.5	21	2.5
1038	0	3	30	21.5	2.5
1039	0	3	31	21	2
1040	0	3	31	21.5	2.5
1041	0	3	29	22	2
1042	0	3	29.5	22.5	2
1043	0	3	29.5	22	2.5
1044	0	3	29	22.5	2.5
1045	0	3	30	22	2
1046	0	3	30.5	22.5	2
1047	0	3	30.5	22	2.5
1048	0	3	30	22.5	2.5
1049	0	3	31	22	2
1050	0	3	31	22.5	2.5
1051	0	3	29	23	2
1052	0	3	29.5	23.5	2
1053	0	3	29.5	23	2.5
1054	0	3	29	23.5	2.5
1055	0	3	30	23	2
1056	0	3	30.5	23.5	2
1057	0	3	30.5	23	2.5
1058	0	3	30	23.5	2.5
1059	0	3	31	23	2
1060	0	3	31	23.5	2.5
1061	0	3	29	24	2
1062	0	3	29.5	24.5	2
1063	0	3	29.5	24	2.5
1064	0	3	29	24.5	2.5
1065	0	3	30	24	2
1066	0	3	30.5	24.5	2
1067	0	3	30.5	24	2.5
1068	0	3	30	24.5	2.5
1069	0	3	31	24	2
1070	0	3	31	24.5	2.5
1071	0	3	29	25	2
1072	0	3	29.5	25.5	2
1073	0	3	29.5	25	2.5
1074	0	3	29	25.5	2.5
1075	0	3	30	25	2
1076	0	3	30.5	25.5	2
1077	0	3	30.5	25	2.5
1078	0	3	30	25.5	2.5
1079	0	3	31	25	2
1080	0	3	31	25.5	2.5
1081	0	3	29	26	2
1082	0	3	29.5	26.5	2
1083	0	3	29.5	26	2.5
1084	0	3	29	26.5	2.5
1085	0	3	30	26	2
1086	0	3	30.5	26.5	2
1087	0	3	30.5	26	2.5
1088	0	3	30	26.5	2.5
1089	0	3	31	26	2
1090	0	3	31	26.5	2.5
1091	0	3	29	27	2
1092	0	3	29.5	27.5	2
1093	0	3	29.5	27	2.5
1094	0	3	29	27.5	2.5
1095	0	3	30	27	2
1096	0	3	30.5	27.5	2
1097	0	3	30.5	27	2.5
1098	0	3	30	27.5	2.5
1099	0	3	31	27	2
1100	0	3	31	27.5	2.5
1101	0	3	29	28	2
1102	0	3	29.5	28.5	2
1103	0	3	29.5	28	2.5
1104	0	3	29	28.5	2.5
1105	0	3	30	28	2
1106	0	3	30.5	28.5	2
1107	0	3	30.5	28	2.5
1108	0	3	30	28.5	2.5
1109	0	3	31	28	2
1110	0	3	31	28.5	2.5
1111	0	3	29	29	2
1112	0	3	29.5	29.5	2
1113	0	3	29.5	29	2.5
1114	0	3	29	29.5	2.5
1115	0	3	30	29	2
1116	0	3	30.5	29.5	2
1117	0	3	30.5	29	2.5
1118	0	3	30	29.5	2.5
1119	0	3	31	29	2
1120	0	3	31	29.5	2.5
1121	0	3	29	30	2
1122	0	3	29.5	30.5	2
1123	0	3	29.5	30	2.5
1124	0	3	29	30.5	2.5
1125	0	3	30	30	2
1126	0	3	30.5	30.5	2
1127	0	3	30.5	30	2.5
1128	0	3	30	30.5	2.5
1129	0	3	31	30	2
1130	0	3	31	30.5	2.5
1131	0	3	29	31	2
1132	0	3	29.5	31.5	2
1133	0	3	29.5	31	2.5
1134	0	3	29	31.5	2.5
1135	0	3	30	31	2
1136	0	3	30.5	31.5	2
1137	0	3	30.5	31	2.5
1138	0	3	30	31.5	2.5
1139	0	3	31	31	2
1140	0	3	31	31.5	2.5
1141	0	3	29	32	2
1142	0	3	29.5	32.5	2
1143	0	3	29.5	32	2.5
1144	0	3	29	32.5	2.5
1145	0	3	30	32	2
1146	0	3	30.5	32.5	2
1147	0	3	30.5	32	2.5
1148	0	3	30	32.5	2.5
1149	0	3	31	32	2
1150	0	3	31	32.5	2.5
1151	0	3	29	33	2
1152	0	3	29.5	33.5	2
1153	0	3	29.5	33	2.5
1154	0	3	29	33.5	2.5
1155	0	3	30	33	2
1156	0	3	30.5	33.5	2
1157	0	3	30.5	33	2.5
1158	0	3	30	33.5	2.5
1159	0	3	31	33	2
1160	0	3	31	33.5	2.5
1161	0	3	29	34	2
1162	0	3	29.5	34.5	2
1163	0	3	29.5	34	2.5
1164	0	3	29	34.5	2.5
1165	0	3	30	34	2
1166	0	3	30.5	34.5	2
1167	0	3	30.5	34	2.5
1168	0	3	30	34.5	2.5
1169	0	3	31	34	2
1170	0	3	31	34.5	2.5
1171	0	3	29	35	2
1172	0	3	29.5	35.5	2
1173	0	3	29.5	35	2.5
1174	0	3	29	35.5	2.5
1175	0	3	30	35	2
1176	0	3	30.5	35.5	2
1177	0	3	30.5	35	2.5
1178	0	3	30	35.5	2.5
1179	0	3	31	35	2
1180	0	3	31	35.5	2.5
1181	0	3	29	36	2
1182	0	3	29.5	36.5	2
1183	0	3	29.5	36	2.5
1184	0	3	29	36.5	2.5
1185	0	3	30	36	2
1186	0	3	30.5	36.5	2
1187	0	3	30.5	36	2.5
1188	0	3	30	36.5	2.5
1189	0	3	31	36	2
1190	0	3	31	36.5	2.5
1191	0	3	29	37	2
1192	0	3	29.5	37.5	2
1193	0	3	29.5	37	2.5
1194	0	3	29	37.5	2.5
1195	0	3	30	37	2
1196	0	3	30.5	37.5	2
1197	0	3	30.5	37	2.5
1198	0	3	30	37.5	2.5
1199	0	3	31	37	2
1200	0	3	31	37.5	2.5
1201	0	3	29	38	2
1202	0	3	29.5	38.5	2
1203	0	3	29.5	38	2.5
1204	0	3	29	38.5	2.5
1205	0	3	30	38	2
1206	0	3	30.5	38.5	2
1207	0	3	30.5	38	2.5
1208	0	3	30	38.5	2.5
1209	0	3	31	38	2
1210	0	3	31	38.5	2.5
1211	0	3	29	39	2
1212	0	3	29.5	39.5	2
1213	0	3	29.5	39	2.5
1214	0	3	29	39.5	2.5
1215	0	3	30	39	2
1216	0	3	30.5	39.5	2
1217	0	3	30.5	39	2.5
1218	0	3	30	39.5	2.5
1219	0	3	31	39	2
1220	0	3	31	39.5	2.5
1221	0	3	29	0	3
1222	0	3	29.5	0.5	3
1223	0	3	29.5	0	3.5
1224	0	3	29	0.5	3.5
1225	0	3	30	0	3
1226	0	3	30.5	0.5	3
1227	0	3	30.5	0	3.5
1228	0	3	30	0.5	3.5
1229	0	3	31	0	3
1230	0	3	31	0.5	3.5
1231	0	3	29	1	3
1232	0	3	29.5	1.5	3
1233	0	3	29.5	1	3.5
1234	0	3	29	1.5	3.5
1235	0	3	30	1	3
1236	0	3	30.5	1.5	3
1237	0	3	30.5	1	3.5
1238	0	3	30	1.5	3.5
1239	0	3	31	1	3
1240	0	3	31	1.5	3.5
1241	0	3	29	2	3
1242	0	3	29.5	2.5	3
1243	0	3	29.5	2	3.5
1244	0	3	29	2.5	3.5
1245	0	3	30	2	3
1246	0	3	30.5	2.5	3
1247	0	3	30.5	2	3.5
1248	0	3	30	2.5	3.5
1249	0	3	31	2	3
1250	0	3	31	2.5	3.5
1251	0	3	29	3	3
1252	0	3	29.5	3.5	3
1253	0	3	29.5	3	3.5
1254	0	3	29	3.5	3.5
1255	0	3	30	3	3
1256	0	3	30.5	3.5	3
1257	0	3	30.5	3	3.5
1258	0	3	30	3.5	3.5
1259	0	3	31	3	3
1260	0	3	31	3.5	3.5
1261	0	3	29	4	3
1262	0	3	29.5	4.5	3
1263	0	3	29.5	4	3.5
1264	0	3	29	4.5	3.5
1265	0	3	30	4	3
1266	0	3	30.5	4.5	3
1267	0	3	30.5	4	3.5
1268	0	3	30	4.5	3.5
1269	0	3	31	4	3
1270	0	3	31	4.5	3.5
1271	0	3	29	5	3
1272	0	3	29.5	5.5	3
1273	0	3	29.5	5	3.5
1274	0	3	29	5.5	3.5
1275	0	3	30	5	3
1276	0	3	30.5	5.5	3
1277	0	3	30.5	5	3.5
1278	0	3	30	5.5	3.5
1279	0	3	31	5	3
1280	0	3	31	5.5	3.5
1281	0	3	29	6	3
1282	0	3	29.5	6.5	3
1283	0	3	29.5	6	3.5
1284	0	3	29	6.5	3.5
1285	0	3	30	6	3
1286	0	3	30.5	6.5	3
1287	0	3	30.5	6	3.5
1288	0	3	30	6.5	3.5
1289	0	3	31	6	3
1290	0	3	31	6.5	3.5
1291	0	3	29	7	3
1292	0	3	29.5	7.5	3
1293	0	3	29.5	7	3.5
1294	0	3	29	7.5	3.5
1295	0	3	30	7	3
1296	0	3	30.5	7.5	3
1297	0	3	30.5	7	3.5
1298	0	3	30	7.5	3.5
1299	0	3	31	7	3
1300	0	3	31	7.5	3.5
1301	0	3	29	8	3
1302	0	3	29.5	8.5	3
1303	0	3	29.5	8	3.5
1304	0	3	29	8.5	3.5
1305	0	3	30	8	3
1306	0	3	30.5	8.5	3
1307	0	3	30.5	8	3.5
1308	0	3	30	8.5	3.5
1309	0	3	31	8	3
1310	0	3	31	8.5	3.5
1311	0	3	29	9	3
1312	0	3	29.5	9.5	3
1313	0	3	29.5	9	3.5
1314	0	3	29	9.5	3.5
1315	0	3	30	9	3
1316	0	3	30.5	9.5	3
1317	0	3	30.5	9	3.5
1318	0	3	30	9.5	3.5
1319	0	3	31	9	3
1320	0	3	31	9.5	3.5
1321	0	3	29	10	3
1322	0	3	29.5	10.5	3
1323	0	3	29.5	10	3.5
1324	0	3	29	10.5	3.5
1325	0	3	30	10	3
1326	0	3	30.5	10.5	3
1327	0	3	30.5	10	3.5
1328	0	3	30	10.5	3.5
1329	0	3	31	10	3
1330	0	3	31	10.5	3.5
1331	0	3	29	11	3
1332	0	3	29.5	11.5	3
1333	0	3	29.5	11	3.5
1334	0	3	29	11.5	3.5
1335	0	3	30	11	3
1336	0	3	30.5	11.5	3
1337	0	3	30.5	11	3.5
1338	0	3	30	11.5	3.5
1339	0	3	31	11	3
1340	0	3	31	11.5	3.5
1341	0	3	29	12	3
1342	0	3	29.5	12.5	3
1343	0	3	29.5	12	3.5
1344	0	3	29	12.5	3.5
1345	0	3	30	12	3
1346	0	3	30.5	12.5	3
1347	0	3	30.5	12	3.5
1348	0	3	30	12.5	3.5
1349	0	3	31	12	3
1350	0	3	31	12.5	3.5
1351	0	3	29	13	3
1352	0	3	29.5	13.5	3
1353	0	3	29.5	13	3.5
1354	0	3	29	13.5	3.5
1355	0	3	30	13	3
1356	0	3	30.5	13.5	3
1357	0	3	30.5	13	3.5
1358	0	3	30	13.5	3.5
1359	0	3	31	13	3
1360	0	3	31	13.5	3.5
1361	0	3	29	14	3
1362	0	3	29.5	14.5	3
1363	0	3	29.5	14	3.5
1364	0	3	29	14.5	3.5
1365	0	3	30	14	3
1366	0	3	30.5	14.5	3
1367	0	3	30.5	14	3.5
1368	0	3	30	14.5	3.5
1369	0	3	31	14	3
1370	0	3	31	14.5	3.5
1371	0	3	29	15	3
1372	0	3	29.5	15.5	3
1373	0	3	29.5	15	3.5
1374	0	3	29	15.5	3.5
1375	0	3	30	15	3
1376	0	3	30.5	15.5	3
1377	0	3	30.5	15	3.5
1378	0	3	30	15.5	3.5
1379	0	3	31	15	3
1380	0	3	31	15.5	3.5
1381	0	3	29	16	3
1382	0	3	29.5	16.5	3
1383	0	3	29.5	16	3.5
1384	0	3	29	16.5	3.5
1385	0	3	30	16	3
1386	0	3	30.5	16.5	3
1387	0	3	30.5	16	3.5
1388	0	3	30	16.5	3.5
1389	0	3	31	16	3
1390	0	3	31	16.5	3.5
1391	0	3	29	17	3
1392	0	3	29.5	17.5	3
1393	0	3	29.5	17	3.5
1394	0	3	29	17.5	3.5
1395	0	3	30	17	3
1396	0	3	30.5	17.5	3
1397	0	3	30.5	17	3.5
1398	0	3	30	17.5	3.5
1399	0	3	31	17	3
1400	0	3	31	17.5	3.5
1401	0	3	29	18	3
1402	0	3	29.5	18.5	3
1403	0	3	29.5	18	3.5
1404	0	3	29	18.5	3.5
1405	0	3	30	18	3
1406	0	3	30.5	18.5	3
1407	0	3	30.5	18	3.5
1408	0	3	30	18.5	3.5
1409	0	3	31	18	3
1410	0	3	31	18.5	3.5
1411	0	3	29	19	3
1412	0	3	29.5	19.5	3
1413	0	3	29.5	19	3.5
1414	0	3	29	19.5	3.5
1415	0	3	30	19	3
1416	0	3	30.5	19.5	3
1417	0	3	30.5	19	3.5
1418	0	3	30	19.5	3.5
1419	0	3	31	19	3
1420	0	3	31	19.5	3.5
1421	0	3	29	20	3
1422	0	3	29.5	20.5	3
1423	0	3	29.5	20	3.5
1424	0	3	29	20.5	3.5
1425	0	3	30	20	3
1426	0	3	30.5	20.5	3
1427	0	3	30.5	20	3.5
1428	0	3	30	20.5	3.5
1429	0	3	31	20	3
1430	0	3	31	20.5	3.5
1431	0	3	29	21	3
1432	0	3	29.5	21.5	3
1433	0	3	29.5	21	3.5
1434	0	3	29	21.5	3.5
1435	0	3	30	21	3
1436	0	3	30.5	21.5	3
1437	0	3	30.5	21	3.5
1438	0	3	30	21.5	3.5
1439	0	3	31	21	3
1440	0	3	31	21.5	3.5
1441	0	3	29	22	3
1442	0	3	29.5	22.5	3
1443	0	3	29.5	22	3.5
1444	0	3	29	22.5	3.5
1445	0	3	30	22	3
1446	0	3	30.5	22.5	3
1447	0	3	30.5	22	3.5
1448	0	3	30	22.5	3.5
1449	0	3	31	22	3
1450	0	3	31	22.5	3.5
1451	0	3	29	23	3
1452	0	3	29.5	23.5	3
1453	0	3	29.5	23	3.5
1454	0	3	29	23.5	3.5
1455	0	3	30	23	3
1456	0	3	30.5	23.5	3
1457	0	3	30.5	23	3.5
1458	0	3	30	23.5	3.5
1459	0	3	31	23	3
1460	0	3	31	23.5	3.5
1461	0	3	29	24	3
1462	0	3	29.5	24.5	3
1463	0	3	29.5	24	3.5
1464	0	3	29	24.5	3.5
1465	0	3	30	24	3
1466	0	3	30.5	24.5	3
1467	0	3	30.5	24	3.5
1468	0	3	30	24.5	3.5
1469	0	3	31	24	3
1470	0	3	31	24.5	3.5
1471	0	3	29	25	3
1472	0	3	29.5	25.5	3
1473	0	3	29.5	25	3.5
1474	0	3	29	25.5	3.5
1475	0	3	30	25	3
1476	0	3	30.5	25.5	3
1477	0	3	30.5	25	3.5
1478	0	3	30	25.5	3.5
1479	0	3	31	25	3
1480	0	3	31	25.5	3.5
1481	0	3	29	26	3
1482	0	3	29.5	26.5	3
1483	0	3	29.5	26	3.5
1484	0	3	29	26.5	3.5
1485	0	3	30	26	3
1486	0	3	30.5	26.5	3
1487	0	3	30.5	26	3.5
1488	0	3	30	26.5	3.5
1489	0	3	31	26	3
1490	0	3	31	26.5	3.5
1491	0	3	29	27	3
1492	0	3	29.5	27.5	3
1493	0	3	29.5	27	3.5
1494	0	3	29	27.5	3.5
1495	0	3	30	27	3
1496	0	3	30.5	27.5	3
1497	0	3	30.5	27	3.5
1498	0	3	30	27.5	3.5
1499	0	3	31	27	3
1500	0	3	31	27.5	3.5
1501	0	3	29	28	3
1502	0	3	29.5	28.5	3
1503	0	3	29.5	28	3.5
1504	0	3	29	28.5	3.5
1505	0	3	30	28	3
1506	0	3	30.5	28.5	3
1507	0	3	30.5	28	3.5
1508	0	3	30	28.5	3.5
1509	0	3	31	28	3
1510	0	3	31	28.5	3.5
1511	0	3	29	29	3
1512	0	3	29.5	29.5	3
1513	0	3	29.5	29	3.5
1514	0	3	29	29.5	3.5
1515	0	3	30	29	3
1516	0	3	30.5	29.5	3
1517	0	3	30.5	29	3.5
1518	0	3	30	29.5	3.5
1519	0	3	31	29	3
1520	0	3	31	29.5	3.5
1521	0	3	29	30	3
1522	0	3	29.5	30.5	3
1523	0	3	29.5	30	3.5
1524	0	3	29	30.5	3.5
1525	0	3	30	30	3
1526	0	3	30.5	30.5	3
1527	0	3	30.5	30	3.5
1528	0	3	30	30.5	3.5
1529	0	3	31	30	3
1530	0	3	31	30.5	3.5
1531	0	3	29	31	3
1532	0	3	29.5	31.5	3
1533	0	3	29.5	31	3.5
1534	0	3	29	31.5	3.5
1535	0	3	30	31	3
1536	0	3	30.5	31.5	3
1537	0	3	30.5	31	3.5
1538	0	3	30	31.5	3.5
1539	0	3	31	31	3
1540	0	3	31	31.5	3.5
1541	0	3	29	32	3
1542	0	3	29.5	32.5	3
1543	0	3	29.5	32	3.5
1544	0	3	29	32.5	3.5
1545	0	3	30	32	3
1546	0	3	30.5	32.5	3
1547	0	3	30.5	32	3.5
1548	0	3	30	32.5	3.5
1549	0	3	31	32	3
1550	0	3	31	32.5	3.5
1551	0	3	29	33	3
1552	0	3	29.5	33.5	3
1553	0	3	29.5	33	3.5
1554	0	3	29	33.5	3.5
1555	0	3	30	33	3
1556	0	3	30.5	33.5	3
1557	0	3	30.5	33	3.5
1558	0	3	30	33.5	3.5
1559	0	3	31	33	3
1560	0	3	31	33.5	3.5
1561	0	3	29	34	3
1562	0	3	29.5	34.5	3
1563	0	3	29.5	34	3.5
1564	0	3	29	34.5	3.5
1565	0	3	30	34	3
1566	0	3	30.5	34.5	3
1567	0	3	30.5	34	3.5
1568	0	3	30	34.5	3.5
1569	0	3	31	34	3
1570	0	3	31	34.5	3.5
1571	0	3	29	35	3
1572	0	3	29.5	35.5	3
1573	0	3	29.5	35	3.5
1574	0	3	29	35.5	3.5
1575	0	3	30	35	3
1576	0	3	30.5	35.5	3
1577	0	3	30.5	35	3.5