LAMMPS (17 Nov 2016)
# Sample LAMMPS script for modulating the probability that a hexamer passes
# a pore with pulling force on a LJ wall, under Langevin dynamics

# settings
# a 3D 60 box
variable      x equal 60
variable      y equal 30
variable      z equal 30
# temperature t = 1
variable      t equal 1
#variable      rho equal 0.7
neigh_modify  delay 0 check yes one 200000 page 2000000


# System setup

units         lj
dimension     3
atom_style    bond
bond_style    harmonic
pair_style    lj/cut 3
read_data     data.polymer
  orthogonal box = (0 0 0) to (60 30 30)
  2 by 2 by 2 MPI processor grid
  reading atoms ...
  8887 atoms
  scanning bonds ...
  1 = max bonds/atom
  reading bonds ...
  9 bonds
  2 = max # of 1-2 neighbors
  2 = max # of 1-3 neighbors
  4 = max # of 1-4 neighbors
  6 = max # of special neighbors

# LJ pairs

# lattice       fcc ${rho}
# region        simbox block 0 $x 0 $y 0 $z
#create_box    1 simbox
region        void cylinder x 15 15 2 29 31
#region        wall block 29 31 0 30 0 30



#create_atoms  3 region wall
#delete_atoms  region void
pair_coeff    1 2 2.5 3
pair_coeff    1 3 2.5 1.12
pair_coeff    2 3 2.5 1.12

velocity      all create $t 97287
velocity      all create 1 97287


# Read bond/position info
group         polymer type 1 2
10 atoms in group polymer
group         first type 1
1 atoms in group first
region        box block 0 $x 0 $y 0 $z
region        box block 0 60 0 $y 0 $z
region        box block 0 60 0 30 0 $z
region        box block 0 60 0 30 0 30
region        spherein sphere 29 15 15 2
region        boxin block 27 29 13 17 13 17
region        hemiin intersect 2 boxin spherein
#region        sphereout sphere 31 15 15 2
#region        boxout block 31 33 13 17 13 17
#region        hemiout intersect 2 boxout sphereout


# Create forces
variable      r equal sqrt((x[1]-29)*(x[1]-29)+(y[1]-15)*(y[1]-15)+(z[1]-15)*(z[1]-15))
variable      fx equal 5*(x[1]-29)/v_r
variable      fy equal 5*(y[1]-15)/v_r
variable      fz equal 5*(z[1]-15)/v_r
variable      ftotal equal fcm(polymer,x)
fix           1 polymer nve
fix           2 polymer langevin $t $t 1 1209
fix           2 polymer langevin 1 $t 1 1209
fix           2 polymer langevin 1 1 1 1209
#fix 3 polymer spring tether 5 3 NULL NULL 0
#fix           3 polymer recenter 5 15 15
#fix           3 first addforce v_fx v_fy v_fz region hemiin
#fix           4 first addforce 1 0 0 region void
#fix           5 polymer addforce 3 0 0 region box
#fix           5 first addforce -5 0 0 region hemiout
timestep      0.01
#dump          walll polymer image 100 dump.*.jpg type type
# equilibration run
#thermo        1000
#run           5000


reset_timestep 0
compute       com polymer com
thermo_style custom v_ftotal c_com[1] c_com[2] c_com[3]
variable      c equal c_com[1]
thermo        1
#run           2500

fix 3 polymer spring tether 5 0 NULL NULL 0
run 5000
Neighbor list info ...
  1 neighbor list requests
  update every 1 steps, delay 0 steps, check yes
  max neighbors/atom: 200000, page size: 2000000
  master list distance cutoff = 3.3
  ghost atom cutoff = 3.3
  binsize = 1.65 -> bins = 37 19 19
Memory usage per processor = 3.91904 Mbytes
v_ftotal c_com[1] c_com[2] c_com[3] 
  -164.99215         17.5           15           15 
  -30.998444    17.499588     15.00216    15.005848 
  -161.97421    17.498866     15.00376    15.011207 
  -81.361707    17.496524    15.005565    15.016501 
  -24.640524    17.493369    15.006372    15.021307 
  -89.427326    17.489967    15.007625    15.025757 
  -110.70631    17.485671    15.009374    15.029449 
  -82.073979    17.480267    15.011003     15.03342 
  -93.598893    17.474043    15.012717    15.038181 
  -13.490312    17.466884    15.014569    15.042595 
  -52.982097    17.459589    15.016409    15.046293 
  -129.28657    17.451764    15.017682    15.049492 
  -84.268393    17.442647    15.018687    15.052617 
  -130.92228    17.432686    15.018974    15.054995 
  -110.52776    17.421417     15.01912    15.057885 
  -92.788011    17.409042    15.019494    15.059952 
   -81.50041     17.39574    15.020237    15.061647 
   5.0384768    17.381622    15.020029    15.062995 
  -55.397392    17.367555    15.018859    15.065402 
  -86.603937    17.352934    15.018034     15.06847 
   54.345509    17.337447     15.01754    15.071615 
  -60.503949    17.322503     15.01692    15.075097 
  -66.523439    17.306954    15.015583    15.079291 
  -55.357288     17.29074    15.014392    15.082994 
  -61.931581    17.273973    15.012373    15.087311 
  -17.868802    17.256586    15.010245    15.092453 
   13.463379     17.23902    15.008535    15.097206 
  -25.828053    17.221589    15.006485    15.101189 
  -57.637055      17.2039     15.00412    15.104433 
  -20.228283    17.185634     15.00158    15.107339 
  -39.649955    17.167166    14.999763     15.11018 
  -108.16648    17.148302    14.998113    15.112875 
  -41.682802    17.128356    14.996114    15.115111 
  -93.356827    17.107993    14.994801    15.117181 
  -58.360932    17.086697    14.993626    15.119221 
    -64.9956    17.064816    14.992443    15.121374 
   -12.15932    17.042286    14.990873    15.124326 
  -71.602332    17.019635    14.989173    15.126152 
  -94.852446    16.996267    14.986516    15.127728 
  -24.726897    16.971951    14.983643    15.128893 
  -81.993808    16.947388    14.980585    15.130154 
  -115.36099    16.922004    14.977552    15.132054 
  -84.454228    16.895467    14.975135    15.133587 
  -71.373263    16.868086    14.972597    15.134784 
   14.498494     16.83999     14.97091    15.135776 
  -26.614354     16.81204    14.969585    15.135772 
   -77.76694    16.783824    14.968419    15.135878 
  -69.864062     16.75483    14.967603    15.136136 
   -100.3241    16.725137    14.966693    15.137143 
  -31.450831    16.694441    14.965952    15.138158 
  -77.999567    16.663431    14.964316    15.139801 
   18.609174     16.63164      14.9624    15.141891 
  -30.534147    16.600036    14.960937    15.144802 
  -101.40165    16.568126    14.959224    15.147204 
   -117.0734    16.535202    14.956641    15.149331 
   27.964094    16.501108    14.953306    15.151219 
  -131.39613    16.467293    14.949293    15.153277 
  -76.223062    16.432164    14.944971    15.155712 
  -21.487028    16.396273    14.940638    15.159258 
  -122.39913    16.360167    14.936372     15.16309 
  -48.453988    16.322837      14.9321    15.167156 
  -59.981171    16.285023    14.927555    15.171297 
  -138.00101    16.246609    14.923234    15.174915 
  -69.115636    16.206815    14.918704    15.177938 
  -56.785476    16.166329    14.914785    15.180895 
  -70.601822    16.125276    14.910432    15.184083 
   10.843332    16.083517    14.906906     15.18746 
   -90.02053    16.041866    14.903625    15.191275 
  -22.396859    15.999315    14.900282    15.195045 
  -36.944321     15.95654      14.8972    15.198532 
   -7.885311    15.913395    14.894306    15.201825 
  -66.183566    15.870172    14.891067    15.205243 
     25.4063    15.826287    14.887937    15.209325 
  -90.302672    15.782656    14.885035    15.213758 
  -98.935463    15.738122    14.882285    15.218502 
  -48.700171    15.692598    14.879981    15.222983 
  -125.97254    15.646588    14.878384     15.22805 
  -91.085296    15.599318    14.876721    15.233008 
    3.603681    15.551136    14.874627    15.237727 
  -62.832414    15.502991    14.872306    15.242468 
  -86.587389    15.454218    14.870007    15.247518 
   -39.52322    15.404579    14.867378    15.251214 
  -47.550527    15.354545     14.86473    15.254055 
  -94.898906    15.304035    14.861789    15.256766 
   30.337333    15.252576    14.858098     15.25971 
     0.34967     15.20142    14.854807    15.262305 
   39.825116    15.150268    14.851913    15.265117 
   -19.09498    15.099514     14.84926    15.268103 
    16.91628    15.048569    14.846529    15.271045 
  -89.536575    14.997794     14.84355    15.274137 
   6.2054217    14.946123    14.840482      15.2771 
   43.647222    14.894514    14.836915    15.279746 
  -49.224265    14.843342    14.833363    15.282847 
  -1.4970267    14.791677    14.830466    15.285872 
  -41.517609    14.739997    14.828201    15.289078 
  -30.151768    14.687902    14.825188    15.292272 
   16.828019    14.635506    14.822298    15.295558 
  -75.491807    14.583278    14.818826    15.297888 
   25.595794    14.530295    14.815867     15.29993 
  -36.734561    14.477568    14.813384    15.301508 
  -20.598803    14.424474     14.81088     15.30377 
  -6.5224048    14.371173    14.808382    15.305856 
   20.322284    14.317808    14.805873    15.307728 
  -35.552901    14.264645    14.803341    15.309448 
  -44.486921    14.211127    14.801081    15.311343 
  -23.842414    14.157165    14.798242    15.313175 
  -75.030206    14.102964    14.795416    15.315053 
  -58.178569    14.048012    14.792116    15.316125 
  -56.999267    13.992479    14.788706    15.317276 
  -4.8094191    13.936376    14.784905    15.318829 
   10.663788    13.880224    14.780971    15.320574 
  -75.175933    13.824179    14.777423    15.322985 
  -11.561211    13.767383    14.774557    15.325534 
   25.664339    13.710471    14.771665    15.327795 
  -43.581571    13.653815    14.768381    15.330231 
   18.024623    13.596724    14.764974    15.332892 
    22.35128    13.539813    14.760373     15.33582 
   12.128246    13.483126    14.755654    15.339101 
   -8.666279     13.42656    14.750791    15.343116 
   5.1672996    13.369907    14.746096    15.347128 
   17.231643    13.313305    14.741903    15.350675 
  -8.1728957    13.256877    14.737585     15.35529 
   76.998016    13.200366    14.733081    15.359623 
  -3.8634118    13.144625    14.728303    15.364202 
    -17.0782    13.088846    14.723014      15.3679 
  0.10192612    13.032896    14.718059    15.371255 
   -9.964261    12.976947    14.712782    15.374527 
  -33.544231    12.920898    14.707911    15.378361 
  -30.191044    12.864514    14.702559    15.382245 
   77.077211    12.807828    14.697242    15.386557 
  -17.451671    12.751913     14.69202     15.39013 
  -14.920417    12.695823    14.686485    15.394008 
   40.407528    12.639584    14.680948    15.399539 
  -54.603386    12.583749     14.67582    15.405583 
   51.472523    12.527368    14.670322    15.411399 
   50.661643    12.471502    14.664355     15.41694 
  -62.793726    12.416142    14.658515    15.421825 
   6.8245975    12.360155    14.653197    15.426552 
  -52.641491    12.304236    14.648024    15.430811 
   49.123331     12.24779    14.642962    15.434406 
   13.199309    12.191835    14.638646    15.437779 
   7.3650638    12.136013    14.634311    15.441384 
  -9.5213961    12.080264     14.62969    15.445274 
  -29.002819     12.02442    14.625049    15.448746 
  -17.385924    11.968286     14.62021    15.451934 
  -92.902209    11.911978    14.615309    15.454898 
   2.3507071    11.854741    14.610272    15.458254 
  -1.2419437    11.797528    14.605544    15.462101 
   31.279348    11.740302    14.600272     15.46605 
   23.108042    11.683389     14.59465    15.469827 
  -16.844667    11.626707    14.588583    15.473358 
  -39.300428    11.569856    14.582965    15.478134 
  -56.682931    11.512613     14.57785    15.482694 
  -44.413789    11.454803    14.573463    15.487498 
  -22.743578    11.396548    14.568993    15.492713 
   23.357777    11.338066    14.564818    15.497646 
  -13.846354    11.279818    14.561055    15.501829 
   25.371484    11.221431    14.556987    15.505244 
  -113.79558    11.163298    14.553055    15.508784 
  -20.273277    11.104027    14.548783    15.513007 
  -7.3644982    11.044554    14.544553    15.516967 
   16.209267    10.985006    14.540324    15.520028 
   54.800693    10.925621    14.536272    15.523532 
   21.196614    10.866784    14.531857    15.526815 
   99.409189    10.808159    14.527311    15.530317 
  -18.638094    10.750527    14.523164    15.532996 
  -9.9764327     10.69271    14.519678    15.535994 
  -5.0208782    10.634792    14.516281    15.538442 
   33.839181    10.576825    14.513152    15.541973 
   15.186213    10.519196    14.510122    15.546062 
   75.963356    10.461719     14.50619    15.549328 
   11.104406    10.405001    14.501495    15.552118 
   77.910658    10.348394     14.49678    15.554644 
   10.897694    10.292567    14.491521     15.55684 
   26.666456    10.236848    14.485621    15.559406 
   150.11208    10.181396    14.478939    15.562145 
   92.383865    10.127446    14.472599     15.56511 
  -11.848009    10.074419    14.465627    15.568325 
   51.846471    10.021273    14.457643     15.57172 
   23.578803    9.9686464    14.450167    15.575546 
   70.427136    9.9162553    14.443181    15.579442 
  -11.431684    9.8645684    14.435663    15.582181 
   30.002968    9.8127672     14.42774    15.584405 
  -0.5784231    9.7612661    14.419936    15.586147 
  -33.837601    9.7097591    14.412201    15.587959 
   31.664127    9.6579138    14.404267    15.589934 
   4.7542199    9.6063852    14.395869    15.591959 
    43.16575    9.5549041    14.387684    15.592849 
  -40.187323    9.5038546    14.379871     15.59297 
   -44.55493    9.4524032    14.372899    15.593498 
    11.67691    9.4005064    14.366134    15.593852 
    14.68507    9.3487262    14.360071    15.594438 
   91.470478     9.297093    14.353946    15.595285 
   8.7415046    9.2463744    14.347523    15.596322 
   7.9020287    9.1957433    14.341042    15.597698 
  -23.249512    9.1451911    14.334667    15.599614 
  -42.776605    9.0944065    14.327558    15.601121 
  0.21507882    9.0431941    14.320971     15.60262 
   56.219244    8.9919839    14.314176    15.603297 
   1.0931396    8.9413358    14.308259    15.604424 
  -70.414296    8.8906987    14.301838     15.60512 
   -44.01863    8.8393575    14.295762     15.60503 
  -1.2927585     8.787576    14.289749    15.605353 
   63.338332    8.7357816    14.283684    15.605212 
   100.31332    8.6846207    14.278286    15.604282 
  -42.898346    8.6344628    14.272367    15.603569 
  -61.546921     8.583876    14.266424    15.602819 
   19.161596    8.5326736    14.260455    15.601093 
  -72.117524     8.481663    14.254893    15.599464 
   39.736545    8.4299311    14.249413    15.597585 
    -41.2405    8.3785966    14.243983    15.596432 
   49.325703    8.3268497    14.238764    15.594725 
   30.359786     8.275596    14.234047    15.593353 
   12.094346     8.224646    14.229828    15.591572 
   28.926817    8.1738169     14.22579    15.589585 
   1.6552601     8.123277    14.222002    15.586697 
   157.84929    8.0727537     14.21893    15.584313 
   38.824005    8.0238089    14.216464    15.582119 
  -27.569998    7.9752524    14.213958    15.579284 
   8.6896998    7.9264201    14.211774    15.577587 
   0.5731805    7.8776748    14.209746    15.576155 
  -48.767923    7.8289352     14.20725    15.574349 
   60.658859    7.7797078    14.205196    15.572202 
   68.047277    7.7310871    14.203412    15.569732 
   72.636896    7.6831469    14.201674    15.568337 
  -2.0342955     7.635933    14.200307    15.566525 
   63.222211    7.5886988     14.19888    15.564426 
   29.095348    7.5420968    14.197506    15.562463 
   2.3788563    7.4957858    14.196482     15.55999 
  -12.715045    7.4494985    14.196127    15.556854 
   19.152105    7.4030841    14.195754    15.553232 
  -53.830667    7.3568612    14.195418    15.549176 
  -55.965174       7.3101    14.195509     15.54545 
  -21.876247    7.2627792    14.195572    15.541816 
   1.1931055    7.2152396    14.195588    15.538498 
   13.284992    7.1677119    14.195369    15.535309 
  -5.7872525    7.1203171    14.195406    15.532089 
   7.0625504    7.0728644    14.195243    15.528423 
  -21.104378    7.0254823    14.196085    15.524875 
   97.466158    6.9778892    14.196352     15.52093 
   42.890289    6.9312707    14.197034     15.51634 
   35.644044    6.8850812    14.198615    15.511456 
   72.841452    6.8392481    14.200766    15.506925 
   114.56055    6.7941434    14.203091     15.50134 
   -29.04303    6.7501843    14.204817    15.496015 
   76.112271    6.7059348    14.207356    15.491207 
  -53.456926    6.6624464    14.210013    15.485924 
   18.014643    6.6184234    14.212722    15.481587 
   -142.0487    6.5745806    14.215947    15.477226 
  -46.970286    6.5293173    14.219876    15.472754 
   30.449519    6.4835843    14.224425    15.468185 
   80.282427    6.4381558    14.229152    15.462891 
   40.266367    6.3935301    14.233072    15.457196 
   31.973296    6.3493071    14.237421    15.451342 
  -48.916695    6.3054038    14.242012    15.445949 
   16.693873    6.2610113    14.246062     15.44088 
   40.410015    6.2167858    14.250116    15.436176 
  -35.536567    6.1729644    14.253369    15.431933 
   10.319867    6.1287876    14.256666    15.428011 
  -53.851265     6.084714    14.259854     15.42374 
   94.328365    6.0401019    14.263491    15.419446 
   58.027992    5.9964331    14.267603    15.415094 
  -82.308225    5.9533445    14.272478    15.411847 
  -7.8498167    5.9094329    14.277386    15.409008 
  -37.334038    5.8654428    14.282192    15.406114 
   38.906188    5.8210793    14.287375    15.403043 
   38.788756    5.7771049    14.293123    15.398876 
   58.791556    5.7335184    14.298513    15.395425 
  -100.12408    5.6905198    14.303897    15.392606 
  -13.358137      5.64652     14.30917    15.390278 
  -21.066847    5.6023866    14.313985    15.387792 
   91.064025    5.5580425    14.318708    15.385374 
  -9.1445506    5.5146091     14.32401     15.38259 
  -43.164711    5.4710842    14.329334    15.379151 
   78.551803    5.4271276    14.334647    15.376186 
   5.8796681    5.3839566    14.340507    15.372819 
  -44.289213    5.3408444    14.345804    15.368985 
  -47.380919    5.2972893    14.350634    15.365597 
   82.342846    5.2532604    14.355563    15.363218 
  -20.581279    5.2100549    14.360316    15.360487 
   22.929851    5.1666436    14.365343    15.357891 
   67.165294    5.1234615    14.370539    15.355885 
  -33.106489    5.0809512    14.376367    15.354419 
  -9.1635547    5.0381098     14.38187    15.353659 
   23.396836    4.9951767    14.386901    15.353033 
   59.895073    4.9524776    14.391842    15.352635 
   28.503111    4.9103775    14.396999    15.351473 
   15.330693    4.8685624    14.401848    15.350126 
   32.064457    4.8269006    14.406576    15.348816 
   8.4586304    4.7855594    14.411689    15.347672 
   6.2911252    4.7443029    14.416949    15.346823 
    49.53478    4.7031092    14.422042    15.345532 
  -8.3993235    4.6624109    14.427063    15.343985 
   77.534938    4.6216286    14.431362    15.342849 
  -78.594974    4.5816216    14.435112    15.342285 
   19.660629    4.5408287    14.438009    15.341353 
  -54.832909    4.5002324    14.441744    15.340409 
   26.487601    4.4590878     14.44559    15.339074 
   42.208864    4.4182081    14.449184    15.337103 
  -33.213099    4.3777504    14.452412    15.335362 
   31.966993    4.3369606    14.455916    15.333085 
  -44.675041    4.2964905    14.459639    15.330952 
   15.206254    4.2555736    14.462719    15.329493 
  -18.347117    4.2148088    14.465913    15.328485 
  -12.302027    4.1738605    14.468855    15.327447 
   56.147203    4.1327892    14.471358    15.326753 
  -87.891206    4.0922794    14.473389    15.326594 
  -4.3408162    4.0508907    14.475048    15.326085 
   -24.40469    4.0094585    14.476266    15.325589 
  -76.758569    3.9677823    14.477582    15.325347 
   93.709242    3.9253385    14.477818    15.325687 
   42.618288    3.8838318     14.47785    15.326063 
   21.332048    3.8427513    14.477376    15.326056 
  -13.904853    3.8018842    14.477419    15.325643 
   101.35797    3.7608779     14.47726    15.324638 
   26.190195    3.7208853    14.477784    15.323535 
  -2.2418238    3.6811545    14.479084    15.322786 
   6.7385364    3.6414013    14.480926    15.321814 
  -5.0704287    3.6017156    14.483462    15.321383 
   25.176279    3.5619791    14.485874    15.321554 
 0.068383887    3.5224943    14.488389    15.321393 
    50.43196    3.4830103      14.4909    15.321283 
   10.946894    3.4440306     14.49397    15.320562 
  -12.227593    3.4051603    14.496433    15.319716 
   39.297805    3.3661678    14.498905    15.318167 
   18.814553    3.3275682    14.501535    15.316137 
   4.1015525    3.2891568    14.504277     15.31461 
   53.609277    3.2507864    14.506991    15.313588 
   47.911479    3.2129521     14.50961    15.312284 
   44.724092    3.1755969    14.512325    15.311378 
       68.22     3.138689    14.515255    15.310543 
   7.0963433    3.1024633    14.517664    15.309954 
   40.544114    3.0663085    14.520665    15.309515 
   49.288454    3.0305591    14.523793    15.308762 
  -21.796664    2.9953027    14.526944    15.307786 
  -2.1952315    2.9598283    14.530185    15.307065 
  -5.5325014    2.9243319     14.53309    15.306656 
   56.471354    2.8887802    14.535844    15.305983 
   11.019201    2.8537932    14.538843    15.304955 
    81.42038    2.8189164    14.541639    15.303676 
   23.446121    2.7848538    14.544372    15.301702 
   55.241595    2.7510257    14.546222    15.300318 
   89.252057      2.71775    14.547915    15.298621 
  -35.451972    2.6853668    14.549642     15.29714 
  -16.689979    2.6526291    14.551319    15.294859 
   50.407978    2.6197245    14.553029     15.29262 
   41.123657    2.5873239    14.554566    15.291525 
   1.6992387    2.5553346     14.55599    15.290553 
   84.046463    2.5233623    14.556254    15.289105 
   42.328237    2.4922305     14.55629    15.287312 
  -77.556213     2.461522    14.556185    15.286098 
  -33.685059    2.4300378    14.556129    15.284241 
   79.490474    2.3982169    14.556235    15.282918 
   65.616959    2.3671908    14.556882    15.282014 
    77.57762    2.3368209    14.557757    15.280595 
   4.9759871    2.3072268    14.558581    15.278946 
   23.258092    2.2776824    14.559342    15.277043 
  -15.403105    2.2483707    14.560565    15.274448 
   69.899646    2.2189049    14.562313    15.271527 
    91.54354     2.190138    14.563883    15.268501 
   52.773976    2.1622867    14.564851    15.265492 
  -4.8104335     2.134963    14.565443    15.262461 
  0.23969344    2.1075913    14.565732    15.259495 
   9.7663678    2.0802219    14.565827    15.257102 
  0.44111833    2.0529503    14.565779    15.254189 
   33.342698     2.025683    14.566071    15.251256 
   47.600736    1.9987492    14.566504    15.248363 
   88.542944    1.9722913    14.567108    15.245722 
    69.21422    1.9467189    14.567905    15.242983 
  -14.248609    1.9218387    14.569359    15.239685 
  -17.577419    1.8968159    14.571133    15.236765 
   98.518204    1.8716174    14.572804    15.234536 
  -68.533303     1.847404    14.573998    15.232338 
  -29.445642    1.8225054    14.574677    15.229921 
  0.20247727    1.7973122    14.575437    15.227404 
   44.060886    1.7721211    14.576335    15.225004 
   73.864435    1.7473706    14.576941    15.222365 
   27.000225    1.7233588    14.577687    15.220506 
   39.477178    1.6996169    14.577887    15.218826 
   41.419977    1.6762699    14.577679    15.217382 
   54.144425     1.653337    14.577459    15.215678 
  -16.679784    1.6309456    14.576756    15.214228 
   5.4270839    1.6083873    14.575945    15.212592 
   9.6391567    1.5858834    14.575142    15.210074 
   29.145491    1.5634758     14.57345    15.207496 
   32.816373    1.5413597    14.571779    15.205527 
  -28.763757    1.5195717    14.569831    15.203551 
  -52.311448    1.4974961    14.567917     15.20153 
  -13.971124    1.4748974     14.56665     15.19979 
   2.3155443     1.452159      14.5652    15.197951 
  -25.787916    1.4294438    14.564093    15.196137 
  -32.758635    1.4064706     14.56227    15.194473 
   91.181351    1.3831699    14.560014     15.19213 
   74.885225     1.360781    14.556773    15.190223 
     30.1128    1.3391409      14.5534    15.188295 
   1.7363462     1.317802    14.549176     15.18614 
    17.33341    1.2964804    14.544713     15.18411 
  -50.542241    1.2753322    14.540226    15.182439 
   29.777994    1.2536785     14.53462    15.181577 
  -23.828704    1.2323227    14.529938    15.180512 
  -35.409318    1.2107285     14.52502    15.179902 
    68.29997    1.1887802    14.519211    15.179043 
   35.090294     1.167515    14.513826    15.178536 
   35.407999    1.1466006    14.508482    15.178728 
   2.6655081    1.1260404    14.502502    15.178913 
   72.508757    1.1055068     14.49671    15.179387 
  -33.129221    1.0856982     14.49132    15.180223 
  -10.875219    1.0655584    14.486816    15.180401 
   21.672305    1.0453098    14.482374    15.181191 
  -26.586115     1.025278    14.478308    15.182638 
   51.094735    1.0049803    14.474095    15.183987 
  -12.242249   0.98519349     14.46985     15.18562 
   8.9006007   0.96528431    14.464961    15.186626 
   29.374579   0.94546412    14.460192    15.188338 
  -37.977701   0.92593769    14.455754    15.190387 
   62.094242   0.90603147    14.450917    15.192965 
  -7.0116028    0.8867462    14.446402    15.195171 
   28.982999   0.86739082     14.44194    15.196727 
   77.031546   0.84832526    14.436579    15.197216 
   4.1189069   0.83003002     14.43179    15.198656 
  -38.402204   0.81177597    14.426484    15.199925 
    68.53808   0.79313789    14.421104    15.201442 
  -29.883101    0.7751852    14.414968    15.202398 
   121.70499   0.75693368    14.408972    15.203128 
   53.396919    0.7398992    14.403089    15.202964 
   86.920797    0.7233987     14.39662    15.202798 
    6.235287    0.7077674    14.389786    15.202973 
  -6.4090496   0.69219845    14.382576    15.203525 
   49.472135   0.67656542    14.375254    15.203317 
  -49.341299   0.66142711    14.368138    15.202719 
  -15.797699   0.64579538     14.36092    15.201871 
   10.199485   0.63000568    14.353381    15.200552 
   16.764622   0.61431797    14.345963    15.199329 
  -56.096355    0.5987979    14.338688    15.197597 
   7.4268005   0.58271688    14.331637    15.195607 
   15.554182   0.56671012    14.324358    15.194694 
  -6.6869538    0.5508589    14.317052    15.194062 
   -38.98795   0.53494082    14.310107    15.193619 
  -23.042496   0.51863285    14.303093    15.193587 
  -13.874315   0.50209446     14.29561    15.193897 
  -20.497698   0.48541733    14.288573    15.194217 
   12.030831   0.46853522    14.281603    15.193859 
   54.601966   0.45177342    14.274368    15.193186 
   -26.69342   0.43555763    14.266117    15.192221 
  -29.566847   0.41907492    14.257408     15.19153 
   18.256288   0.40229653    14.248546    15.191528 
  -25.077651   0.38570071    14.239806    15.191494 
   57.711599   0.36885411    14.231407    15.191625 
  -1.8026944   0.35258463    14.222648    15.192393 
   58.062724   0.33629712    14.214276    15.193674 
   43.162795   0.32059024    14.206707    15.195038 
  -59.664431   0.30531498    14.199184     15.19699 
   67.267552   0.28944308    14.191579    15.199289 
   67.850861   0.27424386    14.184534    15.201383 
   67.988045   0.25972315     14.17823    15.203673 
  0.17559472   0.24588231    14.171745     15.20619 
   37.196194   0.23204323    14.165271    15.208384 
     -11.968   0.21857612    14.159857     15.21136 
  -53.683355   0.20498932    14.154758    15.213854 
  -47.285695   0.19086569    14.149731    15.215333 
  -5.1455064    0.1762692    14.145099    15.216909 
  -23.722487   0.16162126    14.140671    15.219356 
   66.777473    0.1467361     14.13653    15.221629 
  -54.186668    0.1325187    14.131944    15.223546 
   23.187394   0.11775944    14.127936    15.226327 
  -63.965147   0.10323206    14.124095    15.228967 
  -42.668088  0.088065024    14.120353    15.231527 
   14.767224  0.072471306    14.116824    15.234161 
   30.249429  0.057025262    14.113332     15.23758 
   73.223898  0.041881711    14.110374    15.240343 
   22.028988  0.027470399    14.108015    15.243172 
   6.6210424  0.013279378    14.105554    15.245683 
   -41.06884 -0.00084543362    14.103096    15.248365 
   37.330374 -0.015380933    14.101017    15.251426 
  -73.988812 -0.029543129    14.098388     15.25484 
   46.696569 -0.044445213    14.096194    15.258358 
   39.222797 -0.058880332    14.093791    15.262061 
   18.198425 -0.072923222    14.091204    15.266002 
   28.247214 -0.086784128    14.088604    15.269596 
   -34.70244  -0.10036256     14.08569    15.272841 
   44.665592  -0.11428802    14.082805    15.275677 
   14.579292  -0.12776682     14.08008    15.278711 
   47.244498  -0.14109983    14.077533    15.280824 
   67.955738   -0.1539604    14.075246    15.282185 
  -21.927517   -0.1661414    14.072471    15.284213 
   34.537755  -0.17854169    14.070371    15.286131 
   48.880836  -0.19059659    14.067529     15.28729 
   4.6041826  -0.20216269    14.064288    15.288698 
  -45.946411  -0.21368274    14.060404    15.289634 
  -47.652776  -0.22566226    14.056892    15.290583 
  -37.522653  -0.23811831    14.053377    15.291581 
   99.780649  -0.25094958    14.049793    15.292869 
   38.935798  -0.26278305    14.045907    15.293929 
  -10.475437  -0.27422716     14.04258    15.295027 
  -32.631916  -0.28577602    14.039025    15.295369 
  -63.756874   -0.2976512    14.035732    15.295191 
  -47.270282  -0.31016395    14.032408    15.294286 
  -30.832425  -0.32314941    14.028893    15.293739 
   49.873466  -0.33644318    14.025434     15.29401 
  -45.621179  -0.34923823    14.021964    15.294932 
    54.10514  -0.36248948    14.017986    15.296225 
   86.693002  -0.37519969    14.014852    15.297673 
  -53.221746  -0.38704296    14.012179    15.299619 
  -50.083105  -0.39941845    14.009097    15.301745 
   -44.73651  -0.41229477    14.006139     15.30318 
   39.171937  -0.42561846    14.003177     15.30456 
   6.9843924  -0.43855043    14.000078    15.305845 
    78.86824  -0.45141255    13.997246    15.306552 
  -12.073185  -0.46348599    13.994686    15.307419 
  -37.716997  -0.47568017    13.992062    15.308596 
    52.80439  -0.48825151    13.989752    15.308961 
   9.3244915  -0.50029481    13.988116     15.30918 
   17.805034  -0.51224487    13.986257    15.308383 
   41.167974  -0.52401687    13.983967    15.307662 
   -42.18834  -0.53537719    13.981566    15.307055 
  -75.184101   -0.5471594    13.978969    15.307058 
   18.849069  -0.55969345    13.976216    15.307437 
  -20.773364  -0.57203901     13.97305    15.307518 
  -13.731844   -0.5845923    13.970282     15.30759 
   32.629101  -0.59728291    13.967215     15.30799 
   24.974281  -0.60964723    13.964468    15.307706 
  -72.964471  -0.62176181    13.961331    15.306688 
    11.02867  -0.63460603    13.958138    15.305961 
   -18.64291  -0.64733996     13.95511    15.305303 
   57.489971  -0.66026033    13.952505    15.304767 
   23.712593  -0.67260579     13.95011    15.303552 
  -28.872901  -0.68471413    13.948149    15.302979 
   -12.47979   -0.6971112    13.945958    15.302152 
   74.234937  -0.70963306    13.943423    15.302027 
   1.9125288  -0.72141258    13.940676    15.301132 
   60.197486  -0.73317297    13.937826    15.300618 
   9.3316764  -0.74433138     13.93508    15.299432 
  -16.834724  -0.75539648       13.932    15.298548 
  -21.946439  -0.76662993    13.929962    15.297948 
   50.637563  -0.77808284    13.927548    15.296441 
   26.653858  -0.78902937    13.925463    15.294777 
   68.804056  -0.79970937    13.923192    15.293672 
  -40.361565  -0.80970132     13.92055    15.292379 
  -35.066323  -0.82009689    13.918049    15.290693 
   9.8209829  -0.83084313     13.91635    15.288596 
   46.148907  -0.84149115     13.91461    15.286166 
   28.631006  -0.85167769    13.913626      15.2834 
   19.085809  -0.86157791     13.91223    15.280321 
  -33.733458  -0.87128728    13.910792    15.277293 
   7.8661615  -0.88133398    13.909489    15.274704 
   32.315885  -0.89130202    13.908038    15.272671 
   22.871874   -0.9009469     13.90727    15.270113 
   28.369163  -0.91036307    13.906948    15.267598 
  -7.4490273  -0.91949554    13.906788    15.265192 
   55.539435   -0.9287025    13.906581    15.263523 
  -37.056793  -0.93735407    13.906747    15.262444 
    54.09175   -0.9463762    13.906051       15.261 
   46.248356  -0.95485742    13.905687    15.259856 
   46.524998  -0.96287615     13.90562    15.258516 
   106.68322  -0.97042964     13.90508    15.257416 
   47.563786  -0.97691629    13.904673     15.25611 
   9.2845615   -0.9829273    13.904605    15.255577 
   -38.28223  -0.98884547    13.905347     15.25527 
   50.237884  -0.99514646    13.905929    15.255006 
  -1.8272212   -1.0009451    13.906689    15.254195 
    -18.4777    -1.006762    13.907208    15.252847 
   64.489481   -1.0127636    13.908372    15.251564 
   48.355108   -1.0181204    13.909845    15.250852 
  -10.468094   -1.0229936    13.910785    15.249967 
  -60.199912   -1.0279715    13.911478     15.24964 
  -24.494233   -1.0335514    13.912375     15.24933 
    79.45568   -1.0393762    13.912123    15.249573 
   12.782898   -1.0444065    13.912429    15.249341 
   29.539262    -1.049309    13.912097    15.249603 
   -75.45494    -1.053916    13.911695    15.249859 
  0.40513706   -1.0592776    13.911253    15.249293 
   69.337363   -1.0646352    13.911504    15.248513 
   18.909147   -1.0692994     13.91173    15.247696 
  -9.8227222   -1.0737745    13.911412    15.247355 
   41.880977   -1.0783478    13.911285     15.24635 
   17.818499   -1.0825023     13.91119    15.245136 
  -56.248848   -1.0864786    13.910775    15.243589 
  -74.080108   -1.0910174    13.910952    15.242265 
   42.131702    -1.096297    13.911158    15.241257 
   4.2179206   -1.1011553    13.911138    15.240261 
   20.130814   -1.1059715    13.911198    15.239087 
   10.963169   -1.1105863     13.91106    15.237337 
  -8.5299475   -1.1150914    13.911132    15.235578 
  -16.590888   -1.1196819    13.911021    15.234072 
  -26.690043   -1.1244383    13.911416    15.232987 
  -30.531649   -1.1294616    13.911876    15.231288 
   12.243422   -1.1347902    13.912872    15.229446 
  -5.7372236   -1.1399964    13.913064     15.22817 
   40.383441   -1.1452599    13.913715    15.226406 
   87.623721   -1.1501196    13.914397      15.2256 
   6.2737891   -1.1541031    13.914395    15.224724 
   88.205391   -1.1580238    13.914158    15.223863 
  0.55792143   -1.1610625    13.913587    15.222471 
  -37.732298   -1.1640956    13.913185    15.221272 
  -18.509773    -1.167506    13.912882    15.220744 
  -47.934463   -1.1711015    13.912367    15.220239 
   39.359586   -1.1751764    13.911392    15.219603 
  -43.503045   -1.1788577    13.910986    15.219704 
   18.335291    -1.182974     13.90985    15.220072 
    49.45212   -1.1869069      13.9081    15.220349 
    61.00568   -1.1903453    13.907029     15.22059 
  -34.106609   -1.1931737    13.905652    15.221482 
   3.9037957   -1.1963431    13.904573    15.221813 
   11.642802   -1.1994735    13.904164     15.22248 
   5.8649089   -1.2024875    13.903033    15.222789 
  -36.443858   -1.2054428    13.901259    15.223517 
  -17.043812   -1.2087626    13.899257    15.223391 
  -51.948753   -1.2122528    13.897159     15.22317 
   59.463482   -1.2162624    13.894624    15.223166 
  -15.865524   -1.2196775    13.891554    15.223108 
   32.240597   -1.2232512    13.889361    15.223163 
   63.345323   -1.2265025    13.886848      15.2224 
   62.244651   -1.2291203     13.88322    15.221247 
   19.557249   -1.2311157    13.879244    15.219861 
  -39.919108   -1.2329156    13.875579    15.218498 
    15.79437   -1.2351146    13.871831    15.216507 
   8.8357593   -1.2371556    13.868049    15.214533 
  -71.888708   -1.2391084    13.864499    15.212301 
  -41.833176     -1.24178    13.860723    15.209962 
   22.531786   -1.2448699    13.856606    15.207969 
     112.859   -1.2477345    13.852153    15.205172 
   20.397689   -1.2494705    13.847219    15.202225 
   14.267373   -1.2510026    13.843251    15.200208 
  -25.289499    -1.252392    13.839843    15.197916 
   49.848915   -1.2540342    13.836398    15.194757 
  -71.094492    -1.255178    13.832948    15.191886 
   59.319626   -1.2570327    13.829248    15.189045 
   7.9555782   -1.2582943    13.825236    15.186295 
   37.458945   -1.2594762     13.82134    15.183782 
  -3.7246735   -1.2602836    13.818316    15.181671 
   75.531854   -1.2611283    13.815385    15.179849 
  -40.314157   -1.2612176    13.812716    15.178113 
  -16.952217     -1.26171    13.810937    15.176215 
  -15.577917    -1.262372     13.80923     15.17495 
  -35.726748   -1.2631898     13.80788    15.172909 
   81.065703   -1.2643648    13.807316    15.170616 
   66.019294   -1.2647291    13.806873    15.168947 
   99.321354   -1.2644333    13.806041    15.167758 
   90.823334   -1.2631443    13.805244    15.165704 
   13.206761    -1.260947    13.804511    15.163594 
   24.260749   -1.2586177    13.803399    15.160546 
  -27.416568   -1.2560457    13.802799    15.157422 
    10.43578   -1.2537479    13.801449     15.15423 
    35.88126   -1.2513458    13.799203    15.150839 
   4.7198046   -1.2485848    13.797756    15.147024 
  -9.2271042   -1.2457767    13.796363    15.143579 
   42.740316   -1.2430608    13.794134     15.14044 
   30.431824   -1.2399175    13.791698    15.137904 
   19.466885   -1.2364699     13.78938    15.135093 
   13.811897   -1.2328276    13.786573    15.131892 
  -8.9773409   -1.2290473    13.784212    15.128225 
   9.9994343   -1.2253566    13.781215    15.124532 
   27.892985    -1.221566    13.777795    15.120572 
    25.57344   -1.2174965    13.774206    15.116617 
   3.2688461   -1.2131712    13.770455    15.112684 
  -19.396446   -1.2088133    13.767326    15.109001 
  -74.093991   -1.2046493    13.764425    15.106323 
   12.609279   -1.2012262    13.760959    15.103948 
  -35.612225    -1.197677    13.758195    15.101227 
    13.24163    -1.194484    13.755502    15.098479 
   4.2617324   -1.1911586    13.753097    15.096225 
   52.380152   -1.1877905    13.751055    15.094795 
   90.670202   -1.1838986     13.74923    15.092402 
   -57.10573   -1.1791001    13.747064    15.090061 
    12.95572   -1.1748726    13.744886    15.087425 
   81.757655   -1.1705155    13.742774    15.085005 
   32.576171   -1.1653409    13.740825    15.082102 
   35.088649   -1.1598404    13.738783    15.078863 
    49.53804   -1.1539892    13.736353    15.075099 
    49.14777   -1.1476425    13.733682    15.071143 
    29.44345   -1.1408043    13.730835    15.067715 
   2.6154883   -1.1336717     13.72845    15.064871 
  -30.818342    -1.126513    13.726138    15.062772 
  -0.5754442   -1.1196625     13.72355    15.060838 
   49.438583   -1.1128177    13.720973    15.058656 
  -20.894433   -1.1054785    13.718457     15.05628 
  -32.959443   -1.0983482    13.716559    15.053492 
   86.558139   -1.0915476    13.715268    15.050425 
   54.980974   -1.0838813    13.713842    15.047956 
  -32.816701   -1.0756653    13.711729    15.044949 
   -93.92696   -1.0677774    13.709009     15.04255 
   28.494956   -1.0608288    13.706662    15.039746 
   4.4303818   -1.0535953     13.70478    15.037159 
   -21.71285   -1.0463174    13.702526    15.035222 
   68.655923   -1.0392567    13.700342    15.033629 
  -25.559187   -1.0315094    13.698615    15.032089 
    8.492851   -1.0240177    13.696458    15.030639 
  -26.302883   -1.0164411     13.69393    15.028837 
   6.9400697   -1.0091275    13.691169    15.027034 
  -52.063576   -1.0017445    13.688345     15.02617 
  -25.036212  -0.99488214    13.685037    15.025688 
  -27.955218  -0.98827014    13.682075    15.025561 
  -135.34789   -0.9819377    13.679227    15.025295 
  -33.573053  -0.97695873    13.676586    15.024491 
  -30.706631  -0.97231549    13.673645    15.023467 
   19.410878  -0.96797932    13.670759    15.022394 
  -34.099966  -0.96344905    13.668353    15.021882 
   46.141813  -0.95925977    13.665598    15.021593 
   17.884005  -0.95460907    13.663501    15.021482 
  -103.70823  -0.94977953    13.661598    15.021683 
  -4.9328414  -0.94598708    13.660258    15.021169 
   13.641313  -0.94224395    13.659733    15.020512 
   30.606306  -0.93836441    13.659426    15.019991 
   67.803224  -0.93417881    13.658462     15.01902 
  -27.731764  -0.92931518    13.656674    15.018501 
  -21.030846  -0.92472886    13.654671    15.017695 
   52.269914  -0.92035285     13.65288     15.01643 
  -36.528237  -0.91545414    13.651368    15.014921 
  -46.402048  -0.91092072      13.6498    15.013425 
   78.838264  -0.90685131    13.648135     15.01201 
  -42.760849  -0.90199353    13.645569    15.010749 
    54.44715  -0.89756335    13.643257    15.009555 
 -0.44065124   -0.8925887    13.640663     15.00822 
  -76.760427  -0.88761845    13.637684    15.007014 
  -10.282198  -0.88341581    13.635158    15.006121 
   12.231337    -0.879316    13.632623    15.005207 
   72.387518  -0.87509386    13.629551    15.003522 
  -25.762505  -0.87014786    13.626703    15.001531 
   63.776116  -0.86545948    13.623803    14.999421 
  -45.709322  -0.86013333    13.621078    14.996929 
   34.055261  -0.85526429    13.618512     14.99512 
  -24.208981  -0.85005468    13.616486    14.993429 
   8.7673289  -0.84508717    13.615081    14.992396 
    27.30143  -0.84003199    13.613743    14.991707 
   27.145685  -0.83470379    13.613136    14.990666 
  -21.376105  -0.82910413    13.612976    14.990194 
   33.838462  -0.82371823     13.61279    14.989286 
   20.240226  -0.81799395    13.612408    14.988487 
   14.591371  -0.81206727    13.611983    14.987295 
   22.146394  -0.80599468    13.611608    14.986284 
  -6.3644577  -0.79970062     13.61136    14.985912 
   7.6594942   -0.7934702    13.611158    14.986409 
  -41.609044  -0.78716319    13.611492    14.986794 
  -15.495202  -0.78127227    13.611964    14.986736 
  -39.615523   -0.7755363    13.612749    14.987729 
   1.1243945  -0.77019649    13.613061    14.988183 
  -15.302292  -0.76484543    13.613895    14.988962 
  -73.264083   -0.7596474    13.614421    14.989501 
  -53.595234  -0.75518201    13.614761    14.989659 
  -72.765278  -0.75125257    13.615232    14.990416 
  -16.782928  -0.74805078    13.616369    14.990695 
   25.553513  -0.74501682    13.617228    14.991275 
   7.1182106  -0.74172733    13.618445    14.991912 
  -10.073905  -0.73836665    13.619838    14.992895 
    6.215062  -0.73510672    13.621338    14.993652 
  -24.068951  -0.73178463    13.622836    14.993976 
   29.349471  -0.72870323    13.624795    14.993895 
   7.6305506  -0.72532834    13.626729    14.993528 
   25.764669  -0.72187714    13.627559    14.992715 
   20.931879   -0.7181683     13.62885    14.992538 
   49.136003  -0.71425013    13.629683    14.992607 
   34.639371  -0.70984061    13.630897    14.992435 
  -8.5236653  -0.70508469    13.631856    14.992051 
  -37.598576  -0.70041401    13.632746    14.991225 
  -13.728155  -0.69611932    13.634036    14.990276 
  -12.281189   -0.6919619    13.634924    14.988563 
  -78.299733   -0.6879273    13.635693    14.986978 
   60.035053   -0.6846757    13.636969    14.985719 
   67.933574  -0.68082375    13.638024    14.984127 
   10.505055  -0.67629246    13.639322    14.983824 
   48.365361  -0.67165611    13.640822    14.983181 
   -74.08621  -0.66653612    13.641821    14.982503 
   89.286762  -0.66215699    13.642842    14.981679 
  -16.233856  -0.65688499    13.643761    14.980483 
   11.036364  -0.65177533    13.644315     14.98015 
   -6.933586   -0.6465553    13.644506    14.980744 
  -32.771887  -0.64140461    13.645468    14.981958 
  -11.600321  -0.63658164    13.646496    14.982625 
  -7.4430075  -0.63187468    13.648206    14.983615 
  -7.9256744  -0.62724214    13.649201    14.985565 
   -34.51693  -0.62268886    13.649742    14.986709 
   80.152913  -0.61848075    13.650625    14.987434 
  -56.732987  -0.61347111    13.651694    14.988204 
  -14.793739   -0.6090288    13.652305    14.988198 
   12.546396  -0.60473442     13.65357    14.988745 
   -59.01099  -0.60031459    13.655463    14.989614 
  -37.860515  -0.59648486    13.657269    14.989996 
  -24.156047  -0.59303374    13.659023    14.990093 
  -37.483795  -0.58982418    13.660325    14.990271 
   37.959524  -0.58698946    13.661511    14.989993 
   5.9967579  -0.58377514    13.662488     14.98994 
   9.7319902  -0.58050085    13.663682    14.989537 
  -113.12597  -0.57712924    13.664453     14.98939 
  -59.888885   -0.5748889     13.66537    14.989094 
   35.178835  -0.57324744    13.666229    14.988289 
   12.187076   -0.5712542    13.666824     14.98752 
  -36.835516  -0.56913908    13.667604    14.987089 
    119.2568  -0.56739232    13.667925    14.986123 
   23.614835  -0.56445299    13.667647     14.98487 
  -103.53512  -0.56127751    13.668156    14.983416 
   -38.69761  -0.55913738     13.66891    14.981842 
  0.19140362  -0.55738423    13.669182    14.980655 
  -29.745635  -0.55562917    13.669294    14.980086 
   39.226786  -0.55417156     13.66918    14.980216 
  -87.152456  -0.55232168    13.669657    14.980715 
  -41.270936  -0.55134333    13.669553    14.981064 
  -18.777221  -0.55077769    13.669824    14.981744 
   60.728487  -0.55039982    13.670044     14.98212 
   21.628997  -0.54941467     13.67017    14.982247 
   57.698446  -0.54821322    13.670832    14.982401 
   28.291994  -0.54643479     13.67176    14.982283 
   3.4630651  -0.54437344    13.672098    14.981932 
   22.911168  -0.54227746     13.67214     14.98112 
  -25.496785  -0.53995237    13.671919    14.980254 
   -40.39545  -0.53788225    13.671855    14.979046 
  -6.3581228  -0.53621608    13.671701    14.978648 
  -17.012391  -0.53461349    13.672075    14.977483 
  -52.807677  -0.53318103    13.672323    14.975847 
   5.2237306  -0.53227664    13.672814    14.973903 
   5.7275437  -0.53132002    13.674017    14.972254 
  -16.383604  -0.53030612    13.674977     14.97075 
   74.129015  -0.52945605    13.675789     14.96964 
  -8.0935948   -0.5278647     13.67614    14.968212 
   11.976149  -0.52635428    13.676608     14.96716 
   7.8943022   -0.5247241    13.676587     14.96579 
   28.810921  -0.52301498     13.67614     14.96364 
   69.164766  -0.52101775    13.675564    14.961721 
   32.057694  -0.51832887      13.6755    14.959664 
   15.112553  -0.51531941    13.675232    14.958303 
   76.146969  -0.51215883    13.674435    14.957218 
  -7.9129187  -0.50823678     13.67358    14.956055 
  -27.975587  -0.50439386    13.672462     14.95506 
   22.714406  -0.50083069    13.672086    14.954641 
  -28.170589  -0.49704038    13.671588    14.954237 
  -89.969264  -0.49353177    13.671189    14.953087 
  -17.786303  -0.49092286    13.670507    14.951582 
   76.366005  -0.48849181    13.670236    14.950329 
  -28.425076   -0.4852971    13.669323    14.949488 
  -16.295771  -0.48238665    13.667867    14.948046 
   62.020597  -0.47963915    13.666326    14.947117 
  -41.301441  -0.47627144    13.664268     14.94662 
   8.4103107  -0.47331675    13.663099    14.946493 
  -31.586107  -0.47027795    13.661868    14.946376 
   43.291042  -0.46755502    13.660355    14.946475 
   16.651691  -0.46439917    13.658848    14.945969 
   105.74065  -0.46107681     13.65741    14.946006 
  -24.506993  -0.45669704     13.65598     14.94657 
   19.468024  -0.45256235    13.654676    14.947497 
   19.764145  -0.44823297    13.653713    14.948686 
   6.4219473  -0.44370595    13.653042    14.949936 
  -50.542533  -0.43911471    13.652071    14.951009 
   2.6963269  -0.43502889    13.650735     14.95217 
   3.7150506  -0.43091612    13.649366    14.953353 
   3.1253273  -0.42676619    13.647949     14.95359 
   14.861683  -0.42258501    13.646397    14.952662 
   60.515327  -0.41825521    13.644764    14.952132 
  -3.1730099  -0.41332026     13.64395    14.952089 
   25.118352  -0.40841704    13.643206    14.952518 
   6.2601574  -0.40326264    13.642009    14.953308 
   90.359739  -0.39804563     13.64101    14.953701 
  -20.830925  -0.39192503    13.638981    14.954112 
   72.953119  -0.38601273    13.636483    14.954467 
   7.1158177  -0.37937091    13.634037    14.955006 
   7.4043453  -0.37265792     13.63196    14.956131 
   27.625144   -0.3658709    13.630695     14.95708 
  -59.806792  -0.35880762    13.629567    14.957544 
   5.8988931  -0.35234241    13.628128    14.957565 
  -93.273706  -0.34581821    13.626695    14.957257 
  -25.175634  -0.34022674     13.62502    14.956717 
   24.442432  -0.33488704    13.623071    14.956826 
  -29.123743  -0.32930291    13.622133    14.957025 
  -28.272995  -0.32401002    13.620674    14.957094 
   46.131172  -0.31899985    13.619012    14.956379 
   85.179372  -0.31352838    13.616495    14.954886 
  -4.1381985  -0.30720511    13.613926    14.952913 
   14.310286  -0.30092322    13.611055    14.950539 
   47.297726  -0.29449823    13.607249    14.948334 
   -5.868508  -0.28760027    13.603657    14.946296 
   -3.848446  -0.28076099    13.599977    14.944952 
  -61.034296  -0.27396019     13.59633    14.942978 
   -74.35425  -0.26776973    13.591963    14.941316 
   12.195311  -0.26232282    13.586814    14.939491 
   5.5934123  -0.25675396    13.581483    14.937282 
   23.555631  -0.25112916    13.576673    14.935594 
   50.091931   -0.2452688    13.571684    14.932754 
  -31.674646  -0.23890753     13.56657    14.929612 
   83.840641    -0.232863    13.560711    14.926398 
  -17.277579  -0.22598007    13.554218     14.92357 
   22.270796  -0.21926991    13.547607    14.920233 
  -30.832718  -0.21233704    13.541212    14.916592 
   25.232285   -0.2057125    13.534809    14.914097 
  -68.584399  -0.19883564    13.528667    14.911827 
  -87.508856  -0.19264462    13.522629    14.909232 
  -22.224952  -0.18732869    13.516842    14.906403 
  -44.037431  -0.18223501    13.510257    14.902889 
   28.308054  -0.17758171    13.504094    14.899982 
  -64.638425  -0.17264532    13.498052    14.895906 
   100.49994  -0.16835532    13.491941    14.892063 
   10.049945  -0.16306032    13.486147    14.888544 
  -36.869711  -0.15766482    13.480622    14.884653 
   4.3517017  -0.15263801    13.475443    14.881228 
  -79.701022  -0.14756769    13.470575    14.878002 
  -77.111276  -0.14329438    13.466161    14.875301 
  -18.243946  -0.13979218    13.462162    14.872557 
   75.344245  -0.13647243    13.458267    14.870467 
   23.605088  -0.13239922    13.454809    14.867938 
  -45.974602  -0.12808997    13.450865    14.864658 
   65.945369  -0.12424047    13.448262    14.861613 
    27.73739  -0.11973151    13.446287    14.859064 
   91.466157  -0.11494517    13.445112    14.856779 
   6.7437382  -0.10924418    13.444271    14.854485 
  -54.673849  -0.10347575     13.44421    14.852034 
  -42.650907 -0.098254053    13.443968    14.849247 
  -12.223392 -0.093458868    13.443679    14.846489 
  -66.671155 -0.088785918    13.442507    14.844413 
  -48.852554 -0.084779678    13.440802    14.841999 
   17.688154 -0.081261965    13.438565    14.839635 
  -5.4713191 -0.077567369     13.43658    14.837061 
    15.02462 -0.073927487    13.434212    14.834001 
   8.4443072 -0.070137359    13.432335     14.83085 
  -16.277012 -0.066262788    13.430898    14.827737 
  -34.245456 -0.062550986    13.429234     14.82494 
    34.43023  -0.05918164    13.427419    14.822374 
   28.685971 -0.055467991    13.425345    14.819758 
  -4.0666335 -0.051467482    13.423224    14.816795 
    100.0841  -0.04750764    13.420538    14.813373 
  -83.474887 -0.042546957    13.418071    14.809185 
  -12.402913 -0.038421022    13.414887    14.805171 
   8.7107797 -0.034419117    13.411457    14.800974 
   77.943215 -0.030330104    13.408223    14.796419 
 -0.46014628 -0.025461658    13.404928    14.791441 
  -21.113556 -0.020597815    13.401809    14.786926 
  -60.669039 -0.015945106    13.398888     14.78242 
  -23.669021 -0.011899089    13.395368     14.77782 
    18.98793 -0.0080897609    13.391781    14.773799 
  -4.0198213 -0.004090554    13.388906    14.769149 
   17.654195 -0.00013154526    13.385786    14.764205 
  -38.441567 0.0040040054    13.382324    14.758768 
   46.986399 0.0077551404    13.378804    14.752696 
  -20.748349  0.011976139     13.37542    14.746763 
   24.247593  0.015989655    13.372033    14.741082 
  -16.303655  0.020245646    13.367491    14.735717 
  -15.290664  0.024338601    13.363975    14.730009 
  -21.291884  0.028278649    13.360077    14.723794 
  -56.040444  0.032005779    13.355645    14.717476 
   45.196286  0.035172504    13.351102    14.711727 
   54.012043  0.038791192    13.346183    14.705526 
  -22.110667      0.04295    13.342034    14.699385 
   17.950919  0.046887701    13.338098    14.692525 
   -14.73704  0.051004912    13.334021    14.685948 
   1.8808031  0.054974753     13.33058    14.679422 
  -18.044857  0.058963401    13.327189    14.673185 
    -88.9476  0.062771601    13.323343    14.667598 
  -17.891983  0.065690325    13.320138    14.662947 
   19.875783  0.068430129    13.315955    14.658154 
   4.9421999  0.071368691    13.311986    14.652208 
  -3.1349841  0.074356675    13.308539    14.645795 
   3.0484385  0.077313309     13.30425    14.638829 
   64.471014  0.080300427    13.300271    14.631599 
   51.932143  0.083932255    13.296761    14.624638 
   10.624359  0.088083405    13.292797    14.617655 
    23.94811  0.092340799    13.288834     14.61053 
  -13.585066  0.096837674    13.284188    14.603832 
   9.2922964    0.1011987    13.279012    14.597177 
  -26.939476   0.10565264    13.274758    14.591204 
  -20.574317    0.1098372     13.27117     14.58532 
   17.144061   0.11381601    13.267854    14.580097 
  -21.044712   0.11796626    13.265369    14.575319 
   28.377071   0.12190606    13.263038    14.569951 
    2.003774   0.12612963    13.260862     14.56478 
   96.912293   0.13037324    13.258428    14.560074 
  -11.726033   0.13558598    13.256806    14.555645 
   33.202921   0.14068145    13.256017    14.551851 
   11.977705   0.14610895    13.254581     14.54826 
  -8.8376645   0.15165623    13.254035     14.54505 
  -43.379938   0.15711514    13.253798    14.541347 
   30.282337   0.16214024    13.253734      14.5382 
   52.853573   0.16746817    13.253859    14.534012 
  -67.430028   0.17332463    13.253844    14.530464 
  -8.3079507   0.17850679    13.254038     14.52659 
   9.6948691   0.18360587    13.254577    14.522899 
   -16.64303   0.18880191    13.255153    14.518917 
  -51.050695   0.19383151    13.255974    14.514791 
   15.722368    0.1983506    13.255866    14.511107 
  -86.249176   0.20302692    13.256035    14.507767 
   57.307282   0.20684075    13.256156     14.50415 
   29.592111   0.21122765    13.256314    14.500686 
  -16.440787   0.21591047    13.256782    14.497025 
  -4.1407904   0.22042888    13.257376    14.493471 
   117.30945   0.22490588    13.257232    14.490176 
  -84.284546   0.23055598    13.257132    14.486211 
  -3.3099511   0.23536324     13.25755    14.483278 
   2.0888653   0.24013739    13.257202    14.480516 
    17.85032   0.24493243      13.2571     14.47688 
  -0.5152732   0.24990598    13.257511    14.473835 
  -14.248632   0.25487437    13.258352    14.470762 
  -68.168862   0.25970028     13.25908    14.468016 
  -43.771665    0.2638445    13.259925    14.465701 
  -44.166229     0.267551    13.260704    14.463039 
   7.9064109   0.27081584     13.26208    14.460668 
   44.926932   0.27415974    13.263806    14.457233 
    2.268038   0.27795291    13.265329    14.453694 
  -7.8423133   0.28176877    13.266458    14.449944 
   20.499156    0.2855062     13.26728    14.446986 
   8.6416414   0.28944862    13.267551    14.444722 
  -40.893806   0.29347746    13.268232     14.44262 
   11.569938   0.29709736    13.268232    14.440968 
   2.7771694   0.30083296    13.268231    14.439821 
  -21.481813   0.30459633    13.268983    14.438536 
   16.629435   0.30814488    13.269462    14.437996 
   49.314246   0.31185973    13.269997    14.437077 
  -2.6957825   0.31606772    13.269893     14.43616 
   46.994054   0.32024875    13.270121    14.435397 
  -94.930937   0.32489972    13.271091    14.434835 
  -1.3919362   0.32860138      13.2718     14.43537 
  -15.442832   0.33228913    13.272771    14.435736 
   7.6069624   0.33582244    13.273724    14.435953 
  -20.667101   0.33943183    13.274898    14.436565 
   5.6083735   0.34283454    13.276143    14.436563 
  -26.209428   0.34629334    13.277733     14.43722 
   8.5618059   0.34949004    13.279056    14.438058 
  -1.4641606   0.35277237    13.280416    14.439692 
   16.531252   0.35604005    13.281991    14.441767 
  -61.444747   0.35947304    13.283332    14.443025 
  -63.949483   0.36229158    13.283982    14.444063 
   11.141137   0.36447063    13.284804    14.445321 
   104.66159   0.36676109    13.285159    14.446387 
  -81.369018   0.37009817    13.285618    14.447082 
  -19.713863   0.37262156    13.286027    14.447119 
  -8.4999481   0.37494781    13.286307     14.44672 
  -48.150165   0.37718906    13.286355    14.446779 
  -14.013336    0.3789488    13.286839    14.447063 
  -25.369962   0.38056842    13.286518    14.447247 
   27.341789   0.38193433    13.286168    14.447928 
   53.500897   0.38357366    13.286476     14.44841 
   -85.16883   0.38574801    13.287174    14.449003 
   72.187821   0.38707066    13.287675    14.449571 
   68.651272   0.38911519    13.286919    14.449506 
   -6.741431   0.39184623    13.285383    14.450074 
   2.4288458   0.39450986    13.283822     14.45095 
   45.291685   0.39719778    13.282251    14.452413 
   4.4218259   0.40033862    13.281118    14.453916 
   5.6388696   0.40352367    13.280026    14.456045 
  -19.948487   0.40676511    13.278625    14.458421 
   66.097846   0.40980707    13.277073    14.461063 
  -12.667673      0.41351    13.275294    14.463284 
  -36.922664   0.41708626    13.273574    14.465144 
   22.962474   0.42029329    13.272192    14.466588 
  0.36704154   0.42372995     13.27069    14.468493 
   45.114872   0.42717028     13.26935    14.470635 
   48.130918   0.43106175    13.268549    14.472787 
   26.155637   0.43543454    13.268193    14.473731 
   99.466997   0.44006888    13.267923    14.474559 
   15.422134   0.44569789    13.268429    14.475388 
   26.922011   0.45148113    13.269045    14.475374 
  -12.251992   0.45753358    13.269553    14.475763 
   46.276839   0.46346351    13.270612    14.476254 
  -18.811053   0.46985621    13.271203    14.476586 
  -44.020544    0.4760608    13.272488    14.476303 
  -74.254641   0.48182519    13.273336    14.475483 
    40.13996   0.48684703    13.273802    14.473897 
  -23.819302   0.49227027    13.274398    14.472146 
   6.1362477   0.49745531     13.27517    14.470581 
  -23.667846   0.50270172     13.27538    14.469854 
  -23.731197   0.50771145    13.276342    14.469315 
   35.890434   0.51248387    13.277232    14.468208 
  -61.396431   0.51761519    13.278018    14.467429 
   -25.13641   0.52213255    13.278728    14.466622 
   111.19457   0.52639854    13.279223    14.466555 
  -12.368294   0.53177648    13.279801    14.467012 
  -5.3531898   0.53703074    13.279258    14.468158 
  -57.779075   0.54223146    13.279227     14.46904 
   24.048671    0.5468544    13.279152    14.470265 
  -11.371977   0.55171782    13.278589    14.471158 
   12.620096   0.55646752    13.278491    14.471827 
  -20.478135   0.56134342    13.277974    14.472647 
   46.657334   0.56601454    13.277594    14.473118 
   7.2838966   0.57115223    13.276909    14.473942 
  -10.801181   0.57636276    13.276198    14.474576 
   36.222226   0.58146528    13.274511    14.475001 
   8.8404243   0.58693003    13.271989    14.474816 
   38.476784   0.59248318    13.270097    14.474043 
   27.204007   0.59842109    13.267476    14.474486 
  -32.325169   0.60463105    13.265202    14.475309 
   -27.73162   0.61051775    13.262699    14.476213 
  -18.557016   0.61612714    13.260237     14.47735 
  -6.2177456   0.62155095     13.25771    14.478143 
  -48.120506   0.62691259    13.255706    14.479142 
    36.71404   0.63179303    13.254193    14.480101 
   18.310639    0.6370406    13.253235    14.481105 
   4.0837117   0.64247128    13.252425     14.48205 
   18.217916    0.6479428    13.251313    14.482457 
  -43.194379    0.6535965    13.249993    14.482379 
  -34.992522   0.65881825    13.248627    14.482057 
   21.940229   0.66369008    13.247395    14.482163 
  -58.019492   0.66878131    13.246233    14.482019 
   75.388138   0.67329235    13.245742     14.48218 
   -84.71599   0.67855727    13.245371    14.482177 
   16.248659   0.68297502    13.244976    14.482543 
   63.549548   0.68755527    13.244336    14.482667 
   72.525699   0.69277101    13.244011     14.48296 
   7.7873758     0.698712     13.24294      14.4829 
  -19.715881   0.70473087    13.241352    14.482719 
    42.15195   0.71055259    13.239292    14.482093 
  -51.459897   0.71679582    13.237954    14.481979 
   50.999444   0.72252445    13.236288    14.482583 
  -6.3190254   0.72876307    13.234752    14.483218 
  -61.262994   0.73493851     13.23351    14.483887 
  -23.900616   0.74050132    13.232382    14.484779 
   23.088918   0.74582512    13.231707    14.486173 
   28.325817   0.75137981    13.230513    14.487322 
  -3.7764785   0.75721775    13.228894    14.488231 
  -45.265639   0.76301794    13.226948    14.489795 
  -27.497107   0.76836546    13.225227    14.491644 
   91.351519   0.77343802    13.222204    14.493265 
   15.809463   0.77942409    13.219313    14.494249 
  -35.172425   0.78556825    13.216374    14.494899 
 -0.38066593   0.79136069    13.212816    14.495355 
   6.3697812   0.79714933    13.209117    14.494686 
   42.829778   0.80300166    13.205296    14.493658 
  -63.011604   0.80928229    13.202004    14.492983 
   9.7797162    0.8149328    13.198457    14.491903 
   51.821761   0.82068111    13.194791    14.490349 
  -65.355478   0.82694764    13.191611    14.489033 
  -3.2612049   0.83256062    13.188475    14.487461 
   44.119248   0.83814098    13.185023    14.485029 
  -36.297174   0.84416253    13.181734    14.482732 
   1.0901181   0.84982111     13.17884    14.480508 
   -17.50757    0.8554906    13.176028    14.479028 
    -52.4807   0.86098501    13.172171    14.477229 
  -50.604201   0.86595461    13.168549    14.476003 
    29.02058   0.87041817    13.165356    14.474525 
   14.870835   0.87517193    13.162373    14.472344 
    77.38376    0.8800744      13.1597    14.469451 
  -55.912677   0.88575071     13.15712    14.466511 
   9.7279969    0.8908679    13.154004    14.463229 
   15.580709   0.89608236    13.150217    14.459996 
   89.480337   0.90145263    13.146398    14.456454 
  -54.833907   0.90771771    13.142421    14.452603 
  -28.509722   0.91343444    13.138496    14.449214 
  -9.5849987   0.91886608    13.135036    14.446098 
  -59.919668   0.92420187    13.131739    14.442939 
   41.558979   0.92893846    13.128666    14.440296 
  -33.417097   0.93409064    13.125599    14.437892 
   3.1194561   0.93890865     13.12249     14.43531 
  -89.920291   0.94375785    13.118488     14.43298 
  -78.695081   0.94770786    13.113336    14.430263 
   25.449708   0.95087091    13.108028    14.427475 
   32.499718   0.95428845    13.103685    14.424616 
     23.3599     0.958031    13.098846    14.421286 
  -50.552697   0.96200714    13.093905    14.417533 
   104.47477   0.96547776    13.088834    14.412739 
  -48.796413   0.96999313    13.083727    14.407085 
   9.1715324   0.97402053    13.079564    14.401622 
   55.368252   0.97813964    13.075048    14.396122 
  -80.626338   0.98281244    13.070528    14.391319 
   9.3854334   0.98667898     13.06548    14.386185 
  -8.9456891   0.99063937    13.060585    14.380769 
  -17.962421    0.9945103    13.055654    14.375782 
  -28.834751   0.99820161    13.050631     14.37086 
  -42.179442    1.0016046    13.045751    14.366033 
  -50.985489    1.0045857    13.040556    14.361734 
  -12.916058     1.007057    13.035807    14.357437 
  -11.455297    1.0093992    13.031234    14.353757 
   15.517516    1.0116268    13.026925    14.350443 
    -48.3043    1.0140096    13.023156    14.347197 
  -4.7166647    1.0159093    13.019443    14.343731 
  -39.036009    1.0177619    13.015394    14.339535 
  -72.353569    1.0192241    13.012034    14.335946 
   17.346046    1.0199627    13.007927    14.333065 
  -24.041116    1.0208749    13.003962    14.330308 
   36.763331    1.0215466    12.999963    14.328187 
  -23.760805    1.0225859    12.995556     14.32569 
  -20.243615    1.0233877    12.990635    14.322952 
   32.002115     1.023987    12.986043    14.319846 
  -40.843455    1.0249063    12.981687    14.316652 
   81.293662    1.0254172    12.976976    14.312741 
  -2.9331326     1.026741    12.972455    14.308947 
  -88.502645    1.0280355    12.968175    14.305035 
   87.367876     1.028445    12.964315    14.301598 
  -22.333536    1.0297281    12.960174    14.298015 
  -51.191942     1.030788    12.955799     14.29483 
  -51.934534    1.0313359    12.952347    14.291352 
  -54.284183    1.0313644    12.949674    14.287284 
   23.438442    1.0308501    12.947178    14.283058 
   22.106265    1.0305702    12.944538    14.279056 
  -50.574517    1.0305114    12.941608    14.274827 
  -43.341112    1.0299468    12.938435    14.270041 
   10.718947    1.0289488    12.934715    14.265907 
   51.624858     1.028058    12.931099    14.261799 
   53.854736    1.0276834    12.927456    14.257534 
   10.212397    1.0278474    12.924293     14.25361 
  -57.969628    1.0281135    12.920791    14.249829 
  -57.407467    1.0277999    12.917096    14.246642 
   107.93193    1.0269122    12.913136    14.243678 
  -91.792385    1.0271039    12.908773    14.240997 
  -37.229085    1.0263776    12.904097    14.238615 
  -38.800385    1.0252791    12.899252    14.236075 
   20.194081    1.0237925    12.894524    14.234442 
   66.532998    1.0225079    12.889206     14.23197 
  -33.475233    1.0218886    12.883997    14.229645 
  -99.203738    1.0209346    12.878933    14.228071 
  -128.43793    1.0189885    12.874169    14.226765 
  -68.497704     1.015758    12.869631    14.225598 
  -48.177275    1.0118426    12.864641    14.224836 
  -55.441754    1.0074454    12.859962    14.224339 
  -36.991973    1.0024937    12.855995     14.22437 
  -41.668637    0.9971722    12.851763    14.224409 
   21.352766   0.99143397    12.847693    14.224202 
  -35.680997   0.98590926    12.843346    14.224139 
   10.612296   0.98002774    12.838964    14.224409 
   71.528025   0.97425235    12.834408    14.224595 
   53.187121   0.96919224    12.829785     14.22426 
  -29.868599     0.964664    12.824493     14.22454 
  -64.195879   0.95983707     12.81939    14.224925 
   43.898489   0.95436819    12.814005    14.224861 
   41.833023   0.94933828    12.808619    14.224024 
  -30.093063   0.94472671    12.802669    14.223138 
   -16.43496   0.93981421    12.796442    14.221921 
   47.287622   0.93473736    12.789554    14.221539 
   34.793054   0.93013339    12.782679    14.221331 
  -3.6022735   0.92587734    12.776674     14.22221 
   47.676054   0.92158527    12.770858    14.223115 
   14.809023   0.91776997    12.765745    14.224153 
  -60.517107   0.91410275    12.760158    14.225614 
  -26.880739   0.90983036     12.75473    14.227165 
  -32.991838   0.90528917    12.749235     14.22795 
    53.61349   0.90041806    12.744852     14.22876 
   15.012953   0.89608308    12.739992    14.229287 
   32.405858   0.89189823     12.73533    14.229591 
   13.690986   0.88803744    12.730514    14.229784 
  -56.849793   0.88431356    12.725415    14.229584 
  -32.935715   0.88002118     12.71925    14.229675 
    43.77973   0.87539945    12.713133    14.229787 
  -18.281431   0.87121551    12.707326    14.230149 
   8.2908576   0.86684876    12.701475     14.23037 
    78.95221   0.86256491    12.696048    14.230851 
   113.43953   0.85907059    12.690004     14.23105 
  -35.589692   0.85671066    12.683945    14.231105 
   66.153432   0.85399484    12.676966    14.230688 
  -112.46798   0.85194055    12.670715    14.230587 
   20.368745   0.84876158    12.664026    14.230713 
   18.028511    0.8457863    12.657107    14.231919 
  -14.123726    0.8429913    12.650423    14.233211 
  -6.1161533   0.84005507    12.643058    14.234366 
  -41.503858   0.83705768     12.63636    14.235622 
  -22.825693   0.83364524     12.62975     14.23671 
  -113.88033   0.83000455    12.623249    14.237244 
  -40.178742   0.82522506    12.616698    14.237354 
   48.654259   0.82004378    12.610115    14.237372 
   32.227176   0.81534904    12.603563    14.237224 
  -77.021402   0.81097657    12.597304    14.237603 
   27.594691   0.80583389     12.59037    14.238584 
  -15.003381   0.80096716    12.583539     14.23854 
  -15.939585   0.79595039    12.577598     14.23788 
   33.036963   0.79077423    12.571675    14.237587 
  -20.083412   0.78592843    12.566394    14.237616 
   49.312925    0.7808818    12.560973    14.238341 
   77.024321    0.7763283     12.55626    14.238217 
   53.036032   0.77254505    12.551346     14.23802 
   25.129991   0.76929215    12.546997    14.237883 
   23.864209   0.76629056    12.542943     14.23815 
   31.693653    0.7635276    12.539254    14.237576 
  -66.726266   0.76108159     12.53597     14.23633 
   17.267561   0.75796831    12.533287    14.234927 
  -78.332872    0.7550277    12.530619    14.233971 
  -30.481888   0.75130377    12.526997    14.232756 
   34.100597   0.74727502    12.523272    14.232294 
   23.721389   0.74358727    12.519986    14.230861 
  -35.497337   0.74013674     12.51645    14.229428 
  -69.190542   0.73633124    12.512904    14.227948 
  -56.360989   0.73183383     12.50935    14.226404 
  -29.499697   0.72677281    12.506273    14.224863 
  -37.590551   0.72141679    12.503208    14.222904 
  -26.777092   0.71568487    12.500108    14.221471 
   31.552557   0.70968517    12.496112      14.2203 
   30.313266     0.704001    12.491902    14.218805 
  -38.627876   0.69861997      12.4877    14.216418 
   70.247264   0.69285265    12.483635    14.214682 
  -2.3132765   0.68778781    12.479815    14.213081 
    9.232332   0.68269984    12.476108    14.211832 
  -39.726538   0.67770419    12.472458    14.211174 
  -38.515748   0.67231127    12.468067     14.21006 
   35.740373    0.6665332    12.463889    14.207906 
  -48.735186   0.66111253    12.459535    14.206529 
   18.233111   0.65520451    12.454977    14.204754 
  -28.278115   0.64947881    12.451037    14.202291 
  -41.600482   0.64347034    12.446371    14.199437 
   3.4083284   0.63704587    12.441275    14.196477 
   -38.08841   0.63065547    12.435721    14.193315 
   36.944337   0.62388419    12.429547    14.190868 
  -103.41358   0.61748236    12.422858    14.187601 
   56.435649   0.61004639    12.416276    14.184714 
   14.672008   0.60317478    12.409844    14.181106 
  -49.346201   0.59644988    12.402908     14.17731 
  -116.37112   0.58923153    12.395898    14.172475 
   5.6876521   0.58084946    12.388224    14.167901 
  -64.822381   0.57252427    12.380393    14.163674 
  -16.035681   0.56355086    12.373069    14.159222 
  -2.5373625   0.55441708    12.366008    14.155161 
  0.43873842   0.54525794    12.359561    14.151337 
  -47.884111   0.53610318    12.353012    14.148001 
  -7.3305724   0.52646958    12.346061    14.144744 
   26.753101   0.51676268    12.339308    14.141567 
   -8.388392   0.50732331    12.331543    14.138463 
  -18.135043   0.49780005    12.323416    14.135175 
  -14.150489   0.48809544    12.315239    14.131227 
  -45.059252   0.47824933    12.307453    14.127037 
    3.386501   0.46795263    12.299905    14.122692 
  -2.0976903   0.45768979    12.292237    14.118621 
  -17.186841   0.44740597    12.283746    14.114288 
   35.988364   0.43695029    12.274489      14.1104 
  -53.334068   0.42685448    12.265481    14.106343 
    -24.3776   0.41622534    12.257146    14.102136 
  -46.197709   0.40535242    12.249224    14.098763 
   5.5287431   0.39401753    12.241206    14.095403 
   44.046503   0.38273792    12.232073    14.092373 
   82.160814   0.37189878    12.223213    14.088899 
  -47.180474   0.36188124    12.215006    14.084759 
       44.99    0.3513919    12.207372    14.081084 
  -14.647493   0.34135247     12.20012    14.077781 
   25.409361   0.33116655    12.193969    14.074527 
   -49.52829   0.32123473    12.187748    14.070879 
   32.642096   0.31080763    12.181866    14.067637 
   69.538976   0.30070694    12.175397    14.064411 
  -46.929588   0.29130165    12.169333    14.061312 
   28.785491   0.28142706    12.163845    14.058099 
   14.510646   0.27184033    12.158793    14.054858 
   79.113432    0.2623987    12.153637    14.051455 
   53.896985   0.25374821    12.148774    14.047199 
  -22.990809   0.24563669     12.14456    14.042764 
   6.0394638   0.23729526    12.141163    14.038473 
   1.3951579   0.22901422    12.137688    14.034234 
   108.33514   0.22074713    12.134322    14.030427 
   8.4611272    0.2135634    12.130476    14.027047 
  -37.797224   0.20646428    12.126765    14.023798 
   8.4525147   0.19898718    12.122831    14.020265 
   40.679211   0.19159461    12.118444    14.016226 
   10.458486   0.18460884    12.114981    14.011322 
   38.292666   0.17772764    12.112369    14.007468 
  -30.052294   0.17122938    12.109596    14.003802 
   14.371449   0.16443059    12.106868    13.999835 
  0.14734171   0.15777552    12.103326    13.995484 
   52.189063   0.15112191    12.099892     13.99113 
  -9.3205569    0.1449902    12.096882    13.987209 
  -35.089419   0.13876529    12.093806    13.983184 
  -2.8343184   0.13218948    12.090737    13.979627 
  -3.5317039   0.12558533    12.087516    13.976686 
   9.9317479   0.11894586    12.083665    13.974439 
  -26.637277    0.1124057    12.078681    13.971602 
   67.715234   0.10559918    12.073853    13.968312 
    36.63073  0.099469804    12.069462    13.964847 
  0.56834067  0.093706738    12.064984    13.961277 
  -76.364696  0.087949356     12.06084    13.957901 
   31.055752  0.081428327    12.056382    13.954252 
  -20.593124  0.075217855    12.052073    13.950224 
   30.155074  0.068801452    12.048199    13.945789 
  -15.286712    0.0626866      12.0446    13.941823 
   53.464555   0.05641888    12.040771    13.937841 
   75.826154  0.050685806    12.037063    13.933938 
    29.41105  0.045710994    12.032543    13.930421 
   60.239215  0.041030292    12.027594    13.927127 
   21.161306  0.036951982    12.022793    13.924577 
   3.1769106  0.033085286    12.017732    13.922015 
   21.934224  0.029250358    12.012637    13.919386 
  0.14816493  0.025634773    12.007978    13.917269 
  -54.369258  0.022020669    12.003383    13.916038 
   25.427343  0.017862873    11.999181    13.915152 
   4.5601246   0.01395935     11.99483    13.913973 
   51.055812  0.010101429    11.990214    13.912918 
  -23.042017 0.0067540653    11.985309    13.912009 
   81.525259 0.0031762817    11.980095    13.910427 
  -60.260639 0.00041375074     11.97432    13.909246 
  -106.08141 -0.0029513866    11.968331    13.908618 
   23.259604 -0.0073773381    11.962658    13.907857 
    53.50754 -0.011570694    11.957004    13.906774 
  -70.269035 -0.015228974    11.951462    13.905155 
   37.219846 -0.019589944    11.945516    13.903554 
   57.658182 -0.023578716    11.939878     13.90135 
   74.497386 -0.026990906    11.933758    13.898706 
   32.699557 -0.029658122    11.927955    13.895977 
  -30.208644 -0.031998343    11.922617    13.893492 
   25.027335  -0.03464065    11.917549    13.890957 
  -34.710816 -0.037032684    11.911893    13.889073 
  -90.089633 -0.039771826    11.906184    13.886707 
  -21.955721 -0.043411864    11.900399    13.885203 
  -57.934205 -0.047271459    11.895111    13.884326 
   17.237393 -0.051710397    11.891043    13.883193 
   39.797868  -0.05597696    11.887619    13.883137 
   28.814189 -0.059845545    11.884211    13.883658 
  -8.3561684 -0.063425988    11.880421    13.884171 
   31.515754 -0.067089993    11.876778    13.885678 
   -55.95422  -0.07043884    11.873001    13.886274 
  -51.983878 -0.074347229    11.869843    13.886813 
  -51.043114 -0.078775458    11.865995    13.888023 
   -59.69638 -0.083714117     11.86184    13.889067 
   2.0172214  -0.08924974    11.857662    13.890066 
 -0.47569268 -0.094765191    11.853566     13.89075 
   37.383985   -0.1002854    11.849258    13.891629 
   10.634175  -0.10543177    11.845606    13.892932 
   48.779894  -0.11047179    11.842709    13.894154 
    17.65767  -0.11502402    11.839688    13.894996 
   54.715225  -0.11939967    11.836495    13.896453 
  -85.735652  -0.12322817     11.83336    13.897742 
   3.2810318  -0.12791402    11.830438    13.898707 
    70.08802  -0.13256707    11.827745    13.899668 
   85.136099  -0.13651923    11.824698    13.900907 
 -0.79281814  -0.13962004    11.821936     13.90285 
  -24.466124  -0.14272877    11.819221    13.904609 
   40.476071  -0.14608216    11.816647    13.907356 
  -6.9392249  -0.14903079    11.814153    13.909952 
  -40.260818  -0.15204882    11.810902    13.912753 
  -53.800481  -0.15546945    11.807864    13.915911 
   36.690108  -0.15942809    11.805177    13.918897 
   64.056409  -0.16301982    11.802938    13.922016 
   13.067821  -0.16597099    11.800775    13.924946 
  -30.585661  -0.16879149    11.798239    13.928009 
   36.386789  -0.17191784     11.79606    13.931049 
   2.1121918  -0.17468032      11.7936    13.933883 
  -28.345669  -0.17742168    11.791331    13.936392 
    36.77871   -0.1804465    11.788759    13.938101 
  -10.272975  -0.18310353    11.787072    13.940235 
   5.2160217  -0.18586329     11.78444    13.942062 
   88.080088  -0.18857089    11.782204       13.944 
   79.543047  -0.19039769    11.779618    13.945821 
   6.1169042  -0.19142906    11.777692    13.947225 
  -25.819548  -0.19239926    11.775822    13.948634 
   73.114461  -0.19362765    11.773104    13.949008 
   26.058479   -0.1941249    11.770561    13.949408 
  -87.579056  -0.19436157    11.767467    13.950177 
  -36.552422  -0.19547402    11.763926    13.950505 
   97.538073    -0.196952    11.760121    13.951325 
  -29.755307   -0.1974546    11.755982    13.952476 
  -41.380516  -0.19825475    11.752655    13.953954 
  -65.535229  -0.19946871    11.750382    13.955394 
   22.977559  -0.20133802    11.748352    13.956369 
   28.738806  -0.20297756    11.745621     13.95816 
  -5.0908286   -0.2043297    11.742832    13.958739 
   19.171456  -0.20573276    11.739799    13.959779 
   16.827665   -0.2069441    11.735858    13.960624 
   3.1758369  -0.20798716    11.731903    13.961148 
  -19.285283  -0.20899847    11.728215    13.962072 
   99.765648  -0.21020262    11.725241    13.963013 
  -1.8490718  -0.21040913    11.721808    13.964002 
  -80.994205  -0.21063412    11.718744    13.964733 
   35.174199  -0.21166905    11.716056    13.965505 
  -28.579059  -0.21235224    11.712655    13.966414 
   53.966789  -0.21332123    11.708197    13.966939 
   9.4409173  -0.21375054    11.703252    13.966769 
   56.315674  -0.21408545     11.69852    13.967216 
   25.591025   -0.2138572    11.694135    13.967569 
  -9.1683005  -0.21337304    11.689742    13.967508 
  -75.327704  -0.21298056    11.684723    13.967905 
   102.45075  -0.21334136    11.679801    13.968604 
   40.375422  -0.21267765    11.674435    13.968786 
  -11.257942  -0.21161019    11.668954    13.968835 
 -0.34167721   -0.2106553    11.663417    13.969133 
   24.931621  -0.20970383    11.657938     13.96867 
[...]
   24.748549    8.0964827    15.979102    9.2564489 
   9.3172141    8.0926698    15.973451     9.256527 
   46.852253      8.08895    15.968034    9.2568005 
  -20.723455    8.0856988    15.961752    9.2569666 
  -39.782742    8.0822403    15.954427    9.2570408 
  -55.062985     8.078384    15.947537     9.256968 
  -24.716402    8.0739771    15.941812     9.255862 
   -7.454988     8.069323    15.936248    9.2550916 
  -1.3257899    8.0645943    15.930886    9.2543837 
   15.429293    8.0598524    15.925872    9.2538461 
   7.2053524    8.0552648    15.921131    9.2527031 
  -9.8567545    8.0507493    15.915765    9.2512108 
   30.578253    8.0461351      15.9104     9.250261 
   13.666347    8.0418268    15.904995    9.2502945 
   44.778791    8.0376551    15.900391    9.2505513 
  -5.9697182    8.0339312    15.895818    9.2507897 
  -54.745996    8.0301476    15.890957    9.2518295 
   62.051685    8.0258166    15.885464     9.253062 
   48.290359     8.022106     15.87997    9.2547003 
  -18.223988    8.0188784    15.874858    9.2569405 
   -4.883391    8.0154685    15.868978     9.258509 
   -8.309668    8.0120098    15.862987    9.2606431 
   -1.123488     8.008468    15.856467    9.2629651 
   60.544848     8.004915    15.850678      9.26553 
     99.2479    8.0019674    15.844864    9.2684151 
  -11.633985    8.0000123    15.838788    9.2711666 
  -45.293944    7.9979409     15.83306    9.2738846 
   3.3483625    7.9954165    15.826837    9.2770416 
  -66.027415    7.9929256    15.820359    9.2795017 
   -71.76034    7.9897744    15.813735     9.281803 
  -59.727701    7.9859056    15.807605     9.283609 
   47.261375    7.9814395    15.801909     9.285499 
  -34.881788    7.9774461    15.796468    9.2876805 
   45.821151    7.9731038    15.791071    9.2898775 
  -24.665216    7.9692198    15.785808    9.2925072 
  -38.631186    7.9650891    15.780793    9.2952125 
   8.4954159    7.9605721    15.775802    9.2981049 
  -22.876059      7.95614    15.770309    9.3013735 
  -18.985282    7.9514792    15.764027    9.3039072 
  -31.444457    7.9466285    15.758779    9.3068239 
   57.034964    7.9414634    15.754261    9.3092429 
   95.358754    7.9368686    15.749901    9.3115159 
   31.597904    7.9332274    15.746219    9.3133935 
  -90.591608    7.9299022    15.742393    9.3148909 
   57.578699    7.9256711    15.738113    9.3163219 
   7.5406966    7.9220158    15.734195    9.3177013 
  -7.1535477    7.9184359    15.730236    9.3185595 
   72.224216    7.9147844    15.727149    9.3195424 
   44.300478    7.9118552    15.724466    9.3197082 
   47.135975     7.909369    15.722354    9.3203863 
   61.387653    7.9073541    15.720772    9.3225336 
  -20.049088    7.9059532    15.719021     9.324842 
    21.49799    7.9043517     15.71654    9.3277043 
  -56.792218    7.9029652    15.714341    9.3302766 
   13.628253    7.9010108    15.712036    9.3328418 
  -4.4645857    7.8991927    15.709506    9.3358143 
  -32.230593    7.8973299    15.706845    9.3387962 
   3.0306565    7.8951448    15.704609    9.3419127 
   34.916475      7.89299    15.702851    9.3458128 
  -95.465238    7.8911844    15.701287    9.3499983 
    2.707321    7.8884242    15.699513    9.3536362 
   76.189252     7.885691    15.698066    9.3577681 
   9.8443084    7.8837197    15.696459    9.3622034 
   41.085586    7.8818468    15.694452    9.3667043 
  -18.655731    7.8803848     15.69307     9.371442 
   3.3441029    7.8787363    15.691982    9.3759938 
  -42.582719    7.8771212    15.690427    9.3806556 
   -63.04601    7.8750802    15.688708    9.3852102 
   25.432207    7.8724088    15.686952    9.3897795 
  -34.404041    7.8699918    15.684877    9.3941687 
   -18.12663    7.8672306    15.683021    9.3990698 
   66.484377    7.8642883    15.680981    9.4039231 
  -43.142399    7.8620107    15.678825    9.4085592 
   25.062836    7.8593018    15.677075    9.4135731 
    50.64381    7.8568434    15.675055    9.4189588 
   52.872943    7.8548915    15.673569    9.4240927 
   21.336937    7.8534684    15.672258     9.428601 
   52.734119    7.8522586    15.670776    9.4323442 
  -32.162154    7.8515761    15.668928    9.4364898 
  -54.384485     7.850572    15.667049    9.4401379 
   66.614281    7.8490241    15.664731    9.4434178 
  -23.420665    7.8481423    15.662525    9.4462564 
  -50.817454    7.8470263    15.659718    9.4491285 
  -23.859043    7.8454022    15.657146    9.4520529 
   103.92072    7.8435394    15.654811    9.4554346 
   44.251569    7.8427159    15.652389    9.4589867 
   96.951651    7.8423348    15.650075    9.4623487 
   16.285733    7.8429233    15.647401     9.466008 
   4.8737596    7.8436747    15.644635    9.4696417 
   5.3678974    7.8444747    15.641618    9.4739746 
  -48.879532    7.8453285    15.638622    9.4783689 
  -65.974982    7.8456935    15.635636    9.4824063 
   40.190192    7.8453987    15.632491    9.4855512 
  -2.5765628    7.8455058    15.628966    9.4892875 
  -17.578712    7.8455872    15.625869    9.4922747 
  -59.277799    7.8454927    15.622801    9.4942145 
  -17.845185    7.8448055    15.620185    9.4972932 
  -50.990334    7.8439398    15.617938    9.5002148 
   6.3960073    7.8425643     15.61615    9.5037554 
  -15.940068    7.8412527    15.614119    9.5079503 
   38.452647    7.8397817    15.611573    9.5119114 
  -21.117443    7.8386952    15.608753    9.5159229 
   1.0531262    7.8373975    15.606404    9.5199159 
  -30.391971    7.8361104    15.603906    9.5238264 
  -30.183727    7.8345193    15.601156    9.5279505 
   76.633454    7.8326265    15.599672     9.532182 
   77.041794    7.8314999    15.598099     9.536367 
   12.023726    7.8311438    15.596692    9.5402123 
  -65.321381    7.8309079     15.59591    9.5444469 
   72.601563    7.8300188    15.595713    9.5489632 
    1.937561    7.8298557    15.595707    9.5536239 
   60.453807     7.829712    15.596101    9.5579515 
  -77.583295    7.8301728     15.59645    9.5620021 
  -3.0718396    7.8298578    15.597104    9.5663347 
  -9.8176392    7.8295121    15.598209    9.5698814 
  -25.215728    7.8290682    15.599496    9.5736417 
  -40.198012    7.8283721    15.601122    9.5776287 
   29.479745     7.827274    15.602572      9.58091 
   52.061019    7.8264708    15.604078    9.5841061 
   40.608829    7.8261882     15.60567    9.5873361 
  -1.9458295    7.8263116    15.607004    9.5914789 
   -12.53241    7.8264156    15.608331     9.595649 
  -38.603004    7.8263943    15.608501    9.6004068 
   13.016478    7.8259869    15.608722    9.6052245 
  -75.162853    7.8257097    15.609015     9.609512 
   67.637938    7.8246809    15.608754    9.6136719 
   20.960732    7.8243285     15.60942      9.61819 
  -1.9180461    7.8241856    15.610003    9.6228961 
   31.774095    7.8240236      15.6113    9.6281496 
   12.988366    7.8241793    15.612443    9.6330033 
   59.983476    7.8244649     15.61424    9.6375911 
   129.86056    7.8253504    15.615048    9.6418658 
    5.389582    7.8275344    15.616075    9.6462333 
   33.678985    7.8297724    15.617745      9.64986 
  -14.632524    7.8323471    15.620036    9.6533734 
   -12.67693    7.8347755    15.622427    9.6568117 
   23.400463    7.8370772    15.624816    9.6588702 
   15.634897    7.8396128    15.627415    9.6607749 
   10.435305    7.8423048    15.630071    9.6625305 
   -6.233962    7.8451011    15.632904    9.6637592 
   38.707073    7.8478351    15.635387    9.6659344 
   33.798352    7.8509562    15.637209    9.6685556 
  -77.661875    7.8544153     15.63879    9.6706307 
   48.228904    7.8570977    15.639968     9.672765 
   18.112294    7.8602625    15.640125    9.6749531 
   35.029466    7.8636083      15.6407    9.6770637 
  -12.548395    7.8673045     15.64101    9.6787749 
  0.88959722    7.8708751    15.641609    9.6809228 
  -33.738973    7.8744547     15.64199    9.6837518 
   51.959681    7.8776969    15.641664    9.6856552 
   46.448649    7.8814586    15.640786     9.688213 
   62.955763    7.8856849    15.640179    9.6904019 
   9.7959725    7.8905407    15.639893    9.6921148 
  -8.3851455    7.8954945    15.639216    9.6933511 
   47.057694    7.9003644    15.638044    9.6953952 
    15.57307    7.9057049    15.636969    9.6978718 
  -51.509256    7.9112011    15.635737    9.7010444 
  -19.379699    7.9161822    15.634028    9.7047387 
  -22.027593    7.9209696     15.63262    9.7084601 
   31.839873    7.9255366    15.631321    9.7120671 
  -36.687218    7.9304221    15.630194    9.7159171 
  -2.9342586    7.9349407     15.62972    9.7199299 
   -37.91329    7.9394299    15.628781    9.7234459 
   15.525403      7.94354      15.6279    9.7270746 
  -4.0255323    7.9478054    15.626891    9.7303521 
  -34.644261    7.9520305    15.625918    9.7338871 
  -11.290626    7.9559092    15.624631    9.7372045 
  -34.556563     7.959675    15.623376    9.7401583 
   25.522949    7.9630952    15.621989     9.744132 
   24.528722    7.9667706    15.619881    9.7478362 
  -45.942993    7.9706913    15.617109    9.7522105 
   13.684199    7.9741526    15.614003    9.7560286 
  -108.55032    7.9777507    15.611516    9.7598183 
  -48.412268    7.9802633    15.608716    9.7638416 
  -26.662732    7.9822918    15.605855    9.7685858 
  -36.111958    7.9840537      15.6022     9.773017 
  -107.82177    7.9854545    15.598125    9.7773415 
   7.0483619     7.985777    15.594827    9.7819165 
  -25.268885      7.98617    15.590717    9.7863981 
  -28.105043    7.9863103    15.586693    9.7913268 
  -10.322801    7.9861696    15.582013    9.7954838 
  -5.5834273    7.9859257    15.576722    9.7997642 
   -31.44255    7.9856259    15.571797    9.8043257 
   22.740522    7.9850117    15.567079      9.80905 
   49.433877    7.9846249    15.561967    9.8146676 
  -32.310552    7.9847324    15.556956    9.8203171 
   80.198887    7.9845168     15.55223    9.8261157 
  -13.649535    7.9851033    15.546763    9.8315802 
   11.134676    7.9855532    15.541921    9.8378074 
    81.75651    7.9861145    15.537698    9.8442451 
   83.136414    7.9874933    15.532727    9.8510955 
   30.885955    7.9897035     15.52753    9.8577214 
   33.072353    7.9922226    15.522011    9.8640827 
   23.902455    7.9950723    15.516867    9.8702643 
  -20.780858    7.9981612    15.511207    9.8774314 
   12.777182    8.0010422    15.505708     9.884074 
    58.68869    8.0040509    15.500552    9.8905691 
  -49.564855    8.0076466    15.496171    9.8971778 
    29.65659    8.0107466    15.491421    9.9041499 
   49.992934    8.0141432    15.486354    9.9105349 
  -43.548153    8.0180397    15.482131    9.9166239 
  -12.040338    8.0215007    15.478033    9.9229058 
   24.838249    8.0248413    15.474626    9.9288579 
   14.386045    8.0284303    15.471609     9.934586 
  -4.3917492    8.0321632    15.467675     9.940731 
  -2.4197361    8.0358521    15.463467    9.9476257 
   20.492022    8.0395169    15.459469    9.9547061 
   53.071633    8.0433865    15.455322    9.9611818 
   72.403583    8.0477869    15.450965     9.967748 
  -15.033769    8.0529113     15.44668     9.974795 
  -24.954996    8.0578854    15.442848    9.9815826 
   36.288385      8.06261    15.439142    9.9882623 
  -35.812854    8.0676974     15.43512    9.9947828 
   27.427295    8.0724267    15.431422    10.001142 
  -61.267463    8.0774302    15.427701    10.007833 
   -24.81513    8.0818211    15.423583    10.014574 
  -30.869004    8.0859638     15.41949    10.020909 
   75.188284    8.0897979    15.416058    10.026078 
   50.711772    8.0943838    15.413083    10.031366 
  -41.029685    8.0994769    15.410408    10.035842 
  -13.800495    8.1041596    15.408367    10.040435 
   18.943251    8.1087044    15.405733    10.045149 
   -7.279203    8.1134385    15.403269    10.049408 
  -22.138604    8.1180999    15.400322    10.053248 
   87.927582    8.1225399    15.397249    10.057331 
  -61.359212    8.1278592    15.393341    10.061499 
  -6.6012215    8.1325649    15.389021    10.066691 
  -18.278623    8.1372045    15.385227    10.071585 
  -34.192556    8.1416614    15.382094    10.076576 
   32.192757    8.1457764    15.378407    10.080988 
   42.755428    8.1502133     15.37529    10.084666 
   49.316982    8.1550777    15.371604    10.087551 
   4.9095137    8.1604353    15.367852    10.090113 
     10.7047     8.165842    15.363936    10.093149 
   18.452297    8.1713558    15.360149    10.095881 
    19.23434     8.177054    15.356109    10.098349 
  -61.221104    8.1829447     15.35258    10.101008 
  -37.762675    8.1882231    15.349252    10.103848 
  -43.762398    8.1931239    15.345715    10.107185 
  -20.329182     8.197587     15.34215    10.110477 
  -14.782165    8.2018469    15.339053    10.114097 
  -39.531579    8.2059589    15.336064    10.117538 
   -51.90187    8.2096756    15.332904    10.121054 
  -30.674683    8.2128733    15.329606    10.124523 
   -50.32452    8.2157643    15.326436     10.12801 
   17.780996     8.218152    15.323869    10.131351 
   26.401155    8.2207176    15.321581    10.134253 
   55.349472    8.2235471    15.318883    10.137995 
   32.915192    8.2269301    15.316393    10.141854 
  -2.3665222    8.2306423    15.313353    10.145583 
   20.141263    8.2343308    15.310564     10.14905 
  -13.985211    8.2382208    15.307725    10.152789 
  -3.4941367    8.2419708    15.305479    10.156971 
   12.969629     8.245686    15.303776     10.16186 
  -59.842033    8.2495308    15.301679    10.166408 
  -42.764732    8.2527772    15.299049    10.171776 
    32.19636     8.255596    15.296621    10.177441 
   37.671745    8.2587367    15.293722     10.18336 
   32.454313    8.2622542    15.290227    10.188756 
   32.786462    8.2660962    15.286354    10.194201 
  -22.070109     8.270266    15.282986    10.199383 
  -83.596537    8.2742152     15.28009    10.203518 
   40.418514    8.2773284    15.276873    10.207111 
  -94.303108    8.2808457    15.273505    10.210842 
   9.9546241    8.2834201    15.270383    10.215261 
  -41.816578     8.286094    15.267618    10.220112 
   20.883788    8.2883497    15.265278    10.224392 
   4.8704004    8.2908143    15.262992    10.228592 
  -44.910763    8.2933275    15.261238    10.233033 
  -53.719169    8.2953917    15.259018    10.237645 
   15.077014    8.2969186    15.256158    10.242168 
  -77.705286    8.2985964    15.253416    10.246232 
  -82.914907    8.2994971    15.251222    10.250448 
   62.898024    8.2995686    15.249326    10.254489 
   6.0180204    8.3002691    15.247762    10.258216 
  -26.209766    8.3010298    15.246027    10.261477 
  -11.360787    8.3015284     15.24407    10.264995 
   6.3174023    8.3019134     15.24185    10.268613 
  -59.769965    8.3023616    15.239458    10.271949 
   15.164895     8.302212    15.238153    10.274251 
   46.886826    8.3022141    15.237019    10.276654 
  -9.1854429    8.3026851    15.235822     10.27914 
   -26.80357    8.3030642    15.235392    10.281312 
  -11.925076    8.3031753    15.235229    10.283904 
    110.1378    8.3031672    15.235109    10.285753 
  -28.529055    8.3042604     15.23535    10.287623 
  -23.525125    8.3050683    15.235303     10.28971 
   23.322483     8.305641    15.235442    10.292025 
  -61.485229    8.3064469    15.236195    10.294386 
  -5.6350029    8.3066379    15.237392     10.29664 
   40.474696    8.3067726    15.239159    10.298706 
   17.584066    8.3073121    15.241403    10.300497 
   83.741508    8.3080274    15.244508    10.302844 
   35.286763    8.3095801    15.248271    10.304358 
   72.857375    8.3114856    15.252328    10.305931 
   -16.09999    8.3141198    15.255878    10.306899 
  -47.037723    8.3165929    15.258945    10.308483 
   39.927576    8.3185957    15.261834    10.310578 
  -31.263285    8.3209977    15.264747    10.312148 
  -67.507234    8.3230871    15.267935    10.313273 
    50.29304    8.3245015    15.270603    10.315103 
   5.4212133    8.3264188    15.273403     10.31636 
   13.230424    8.3283902    15.276374    10.317471 
  -15.622896     8.330494    15.279611    10.318459 
   29.083098    8.3324416    15.282575    10.319027 
  -24.387442      8.33468    15.285102    10.319531 
  -18.012147    8.3366745    15.287263    10.320682 
  -14.580099    8.3384889    15.289287    10.321909 
   28.713125    8.3401574    15.291012    10.322195 
   18.143663    8.3421132    15.291737    10.321926 
   3.9631356    8.3442503    15.292115    10.321107 
  -69.983068    8.3464271    15.292165    10.320438 
  -25.278651    8.3479041    15.291581    10.319715 
  -2.3742969    8.3491282    15.291515    10.318609 
  -14.456766    8.3503287    15.291303    10.316823 
   -38.77824    8.3513845    15.290363     10.31512 
   31.782451    8.3520526     15.28893    10.313311 
   13.832291    8.3530385    15.287742    10.311333 
   77.918593    8.3541627    15.286688    10.309512 
   5.4427761    8.3560661    15.286334    10.307666 
  -47.589429     8.358024    15.285584    10.305058 
   -2.494885    8.3595059    15.285071    10.302265 
   8.8124379    8.3609629    15.283847    10.298932 
  -54.563948     8.362508    15.282667     10.29589 
  -37.133768    8.3635075      15.2816    10.292436 
  -36.326561    8.3641357     15.28053    10.289094 
  -50.691433    8.3644005    15.278995    10.285615 
   18.113744    8.3641585    15.276347    10.282336 
   57.708174    8.3640976    15.273662    10.279193 
   107.35868    8.3646138    15.271249    10.275595 
   56.890983    8.3662035    15.269204    10.272363 
   -10.00077    8.3683622    15.267158    10.268562 
   38.001237    8.3704209    15.265607    10.264787 
  -82.578336    8.3728596    15.264627    10.260922 
   21.066707    8.3744725    15.263704     10.25642 
  -25.695969     8.376296    15.262279    10.251819 
   53.767751    8.3778626    15.261287    10.247125 
  -9.2733117    8.3799669    15.260954    10.241794 
  -11.274423    8.3819785    15.260937    10.236466 
   102.20062    8.3838773    15.260873    10.231401 
   33.380469    8.3867981    15.260633    10.226925 
  -38.406929    8.3900527     15.26014    10.221117 
   20.498321    8.3929233    15.259501    10.215275 
   16.509999    8.3959988    15.259399    10.209279 
  -85.701422    8.3992394    15.259067    10.202997 
   12.153748    8.4016231    15.258595     10.19707 
  -11.271216    8.4041282    15.258101    10.191148 
   17.549912    8.4065207    15.257459     10.18474 
  -35.057691    8.4090886    15.257242    10.178496 
  -60.979207     8.411306    15.256592    10.172644 
   48.434523    8.4129135    15.255413    10.166324 
   66.444059    8.4150055    15.254436    10.160573 
  -26.096026    8.4177618    15.253977    10.154753 
   3.0851355    8.4202572    15.253236    10.149018 
   15.680361    8.4227835    15.252766     10.14337 
Loop time of 20.8076 on 8 procs for 5000 steps with 8887 atoms

Performance: 207616.869 tau/day, 240.297 timesteps/s
87.5% CPU use with 8 MPI tasks x no OpenMP threads

MPI task timing breakdown:
Section |  min time  |  avg time  |  max time  |%varavg| %total
---------------------------------------------------------------
Pair    | 10.967     | 14.277     | 16.903     |  67.6 | 68.62
Bond    | 0.00079536 | 0.0010839  | 0.0018194  |   1.2 |  0.01
Neigh   | 2.9766     | 2.9834     | 2.9891     |   0.3 | 14.34
Comm    | 0.70235    | 3.3133     | 6.5991     | 140.0 | 15.92
Output  | 0.089828   | 0.092904   | 0.10583    |   1.6 |  0.45
Modify  | 0.041758   | 0.058031   | 0.077279   |   4.9 |  0.28
Other   |            | 0.08131    |            |       |  0.39

Nlocal:    1110.88 ave 1338 max 883 min
Histogram: 4 0 0 0 0 0 0 0 0 4
Nghost:    3391.62 ave 3617 max 3162 min
Histogram: 4 0 0 0 0 0 0 0 0 4
Neighs:    170264 ave 199372 max 141380 min
Histogram: 4 0 0 0 0 0 0 0 0 4

Total # of neighbors = 1362111
Ave neighs/atom = 153.27
Ave special neighs/atom = 0.00540115
Neighbor list builds = 873
Dangerous builds = 0
unfix 3
Total wall time: 0:01:43
