LAMMPS (17 Nov 2016)
# Sample LAMMPS script for modulating the probability that a hexamer passes
# a pore with pulling force on a LJ wall, under Langevin dynamics

# settings
# a 3D 60 box
variable      x equal 60
variable      y equal 30
variable      z equal 30
# temperature t = 1
variable      t equal 1
#variable      rho equal 0.7
#neigh_modify  delay 0 check yes one 200000 page 2000000


# System setup

units         lj
dimension     3
atom_style    bond
bond_style    harmonic
pair_style    lj/cut 3
read_data     data.polymer
  orthogonal box = (0 0 0) to (60 30 30)
  1 by 1 by 1 MPI processor grid
  reading atoms ...
  8887 atoms
  scanning bonds ...
  1 = max bonds/atom
  reading bonds ...
  9 bonds
  2 = max # of 1-2 neighbors
  2 = max # of 1-3 neighbors
  4 = max # of 1-4 neighbors
  6 = max # of special neighbors

# LJ pairs

# lattice       fcc ${rho}
# region        simbox block 0 $x 0 $y 0 $z
#create_box    1 simbox
region        void cylinder x 15 15 2 29 31
#region        wall block 29 31 0 30 0 30



#create_atoms  3 region wall
#delete_atoms  region void
pair_coeff    1 2 2.5 1 3
pair_coeff    1 3 4 1.0 3.0
pair_coeff    2 3 4 1.0 3.0

velocity      all create $t 97287
velocity      all create 1 97287


# Read bond/position info
group         polymer type 1 2
10 atoms in group polymer
group         first type 1
1 atoms in group first
region        box block 0 $x 0 $y 0 $z
region        box block 0 60 0 $y 0 $z
region        box block 0 60 0 30 0 $z
region        box block 0 60 0 30 0 30
region        spherein sphere 29 15 15 2
region        boxin block 27 29 13 17 13 17
region        hemiin intersect 2 boxin spherein
#region        sphereout sphere 31 15 15 2
#region        boxout block 31 33 13 17 13 17
#region        hemiout intersect 2 boxout sphereout


# Create forces
variable      r equal sqrt((x[1]-29)*(x[1]-29)+(y[1]-15)*(y[1]-15)+(z[1]-15)*(z[1]-15))
variable      fx equal 5*(x[1]-29)/v_r
variable      fy equal 5*(y[1]-15)/v_r
variable      fz equal 5*(z[1]-15)/v_r
fix           1 polymer nve
fix           2 polymer langevin $t $t 5 1209
fix           2 polymer langevin 1 $t 5 1209
fix           2 polymer langevin 1 1 5 1209
fix           3 first addforce v_fx v_fy v_fz region hemiin
fix           4 first addforce 1 0 0 region void
fix           5 polymer addforce 3 0 0 region box
#fix           5 first addforce -5 0 0 region hemiout

dump          walll all image 1000 dump.*.jpg type type
# equilibration run
#thermo        1000
#run           5000


reset_timestep 0
compute       com polymer com
thermo_style custom c_com[1]

thermo        1
run           10000000
Neighbor list info ...
  1 neighbor list requests
  update every 1 steps, delay 10 steps, check yes
  max neighbors/atom: 2000, page size: 100000
  master list distance cutoff = 3.3
  ghost atom cutoff = 3.3
  binsize = 1.65 -> bins = 37 19 19
Memory usage per processor = 4.48171 Mbytes
c_com[1] 
        17.5 
   17.500267 
   17.500648 
   17.501226 
   17.501866 
   17.502553 
   17.503296 
   17.503936 
   17.504615 
   17.505348 
    17.50618 
   17.507111 
   17.508006 
   17.509052 
   17.510188 
    17.51141 
   17.512709 
   17.514113 
   17.515547 
   17.517073 
   17.518738 
   17.520459 
   17.522291 
   17.524041 
   17.525681 
    17.52738 
   17.529161 
   17.531149 
   17.533261 
   17.535575 
   17.537975 
   17.540434 
   17.542883 
   17.545409 
   17.548049 
   17.550845 
   17.553729 
   17.556665 
   17.559708 
   17.562837 
   17.566035 
   17.569197 
   17.572503 
    17.57592 
   17.579335 
   17.582911 
   17.586515 
   17.590079 
   17.593711 
   17.597315 
   17.600929 
   17.604658 
   17.608512 
   17.612425 
   17.616437 
   17.620526 
   17.624686 
   17.628776 
   17.632888 
   17.637011 
    17.64116 
   17.645494 
   17.649883 
   17.654343 
   17.658984 
   17.663646 
   17.668348 
   17.673077 
   17.677899 
    17.68283 
   17.687863 
   17.692941 
   17.698203 
   17.703493 
   17.708902 
   17.714397 
   17.719994 
   17.725635 
   17.731381 
   17.737127 
   17.743078 
    17.74911 
   17.755172 
   17.761294 
   17.767364 
   17.773519 
     17.7797 
   17.785955 
   17.792377 
   17.798911 
   17.805624 
    17.81257 
   17.819648 
   17.826756 
   17.833922 
   17.841195 
   17.848483 
   17.855911 
   17.863305 
   17.870711 
   17.878123 
   17.885535 
   17.893031 
   17.900632 
   17.908272 
   17.915978 
   17.923704 
   17.931569 
   17.939483 
    17.94747 
   17.955541 
   17.963598 
   17.971648 
   17.979769 
    17.98782 
   17.995891 
   18.004183 
   18.012626 
   18.021106 
   18.029608 
   18.038239 
   18.047076 
   18.056043 
   18.064957 
   18.073943 
   18.083014 
   18.092166 
   18.101492 
   18.110836 
   18.120213 
   18.129687 
   18.139205 
   18.148718 
   18.158357 
   18.167995 
    18.17767 
   18.187411 
   18.197274 
   18.207064 
   18.217047 
   18.227002 
   18.237039 
   18.247191 
    18.25738 
   18.267517 
   18.277665 
   18.287713 
   18.297832 
   18.307924 
   18.318101 
   18.328523 
   18.339021 
   18.349638 
   18.360287 
    18.37109 
   18.381908 
   18.392801 
   18.403783 
    18.41478 
   18.425912 
   18.437105 
   18.448288 
   18.459524 
   18.470883 
   18.482305 
   18.493636 
   18.505044 
   18.516566 
   18.528068 
   18.539557 
   18.550973 
   18.562342 
   18.573894 
   18.585469 
    18.59709 
   18.608756 
   18.620594 
   18.632394 
   18.644259 
    18.65623 
    18.66825 
   18.680373 
   18.692435 
   18.704474 
   18.716558 
   18.728749 
   18.741003 
   18.753184 
   18.765405 
   18.777702 
   18.790082 
   18.802461 
   18.814941 
   18.827542 
   18.840268 
   18.853031 
   18.865735 
    18.87848 
   18.891385 
   18.904271 
   18.917188 
   18.930275 
   18.943438 
    18.95673 
   18.970038 
     18.9834 
   18.996765 
   19.010181 
   19.023675 
   19.037205 
    19.05069 
   19.064107 
   19.077651 
     19.0913 
   19.105005 
   19.118813 
   19.132685 
   19.146646 
   19.160676 
   19.174768 
    19.18904 
   19.203478 
   19.218018 
   19.232668 
   19.247317 
   19.261926 
    19.27671 
     19.2915 
   19.306423 
   19.321325 
   19.336411 
   19.351638 
   19.366927 
   19.382391 
   19.397962 
   19.413596 
   19.429336 
   19.445191 
   19.461147 
   19.477096 
   19.493008 
   19.509019 
   19.524985 
   19.540992 
   19.557037 
   19.573205 
   19.589318 
   19.605459 
   19.621617 
   19.637741 
     19.6538 
   19.669892 
   19.686116 
   19.702303 
   19.718557 
    19.73499 
   19.751436 
    19.76807 
   19.784766 
   19.801554 
   19.818218 
   19.835012 
   19.851905 
   19.868858 
   19.885922 
   19.903066 
   19.920267 
   19.937533 
   19.954895 
   19.972306 
   19.989869 
   20.007519 
   20.025274 
   20.043018 
   20.060758 
   20.078612 
   20.096595 
   20.114681 
   20.132692 
   20.150718 
   20.168752 
   20.186822 
   20.204935 
   20.223024 
   20.241147 
   20.259388 
   20.277787 
   20.296258 
   20.314788 
   20.333328 
   20.351874 
    20.37048 
   20.389166 
   20.408042 
   20.427003 
   20.446012 
    20.46504 
   20.484172 
   20.503272 
    20.52227 
    20.54124 
   20.560188 
   20.579148 
   20.598081 
   20.617046 
   20.636056 
   20.655157 
    20.67426 
   20.693563 
   20.712887 
   20.732238 
   20.751695 
    20.77119 
   20.790723 
   20.810276 
   20.830009 
   20.849797 
   20.869717 
   20.889728 
   20.909935 
   20.930151 
   20.950502 
    20.97095 
   20.991275 
    21.01166 
    21.03193 
   21.052314 
   21.072661 
   21.093032 
   21.113364 
   21.133769 
    21.15411 
   21.174545 
   21.195053 
   21.215581 
   21.236189 
   21.256863 
   21.277555 
   21.298386 
   21.319309 
   21.340371 
   21.361433 
   21.382486 
   21.403608 
   21.424783 
   21.446061 
   21.467323 
   21.488632 
   21.509949 
   21.531372 
   21.552887 
   21.574461 
   21.596003 
   21.617595 
   21.639166 
   21.660807 
   21.682525 
   21.704253 
   21.725912 
   21.747677 
   21.769523 
   21.791355 
   21.813216 
   21.835132 
    21.85724 
   21.879501 
    21.90183 
   21.924218 
   21.946589 
   21.969041 
   21.991556 
   22.014223 
   22.036868 
   22.059405 
   22.081972 
   22.104661 
   22.127366 
   22.150163 
   22.173033 
   22.195889 
   22.218745 
   22.241694 
   22.264747 
   22.287742 
   22.310882 
   22.333985 
   22.357189 
   22.380419 
   22.403736 
   22.427195 
   22.450776 
   22.474465 
   22.498271 
    22.52206 
   22.545803 
   22.569568 
   22.593416 
   22.617336 
    22.64119 
   22.665089 
   22.688921 
   22.712821 
   22.736805 
   22.760872 
   22.785052 
   22.809283 
   22.833613 
   22.857953 
   22.882462 
   22.906928 
   22.931444 
   22.955829 
   22.980258 
   23.004638 
   23.029162 
   23.053669 
   23.078243 
   23.102748 
   23.127331 
   23.151995 
   23.176733 
    23.20152 
   23.226337 
   23.251218 
    23.27613 
   23.300987 
   23.325929 
   23.351052 
   23.376236 
   23.401475 
   23.426824 
   23.452203 
   23.477804 
   23.503324 
   23.528833 
   23.554444 
   23.580252 
   23.606142 
   23.632124 
   23.658238 
   23.684363 
   23.710576 
   23.736874 
   23.763131 
   23.789563 
   23.816069 
   23.842733 
   23.869616 
   23.896595 
   23.923823 
   23.951077 
   23.978429 
   24.005825 
   24.033265 
   24.060805 
   24.088434 
   24.116119 
   24.143817 
   24.171584 
   24.199418 
   24.227348 
   24.255301 
   24.283354 
   24.311524 
   24.339804 
   24.368258 
   24.396849 
   24.425549 
   24.454409 
   24.483459 
   24.512593 
   24.541934 
   24.571456 
   24.601323 
   24.631323 
   24.661594 
   24.692015 
   24.722738 
   24.753725 
   24.785043 
   24.816779 
   24.848811 
   24.881056 
   24.913631 
   24.946537 
   24.979544 
    25.01249 
   25.044699 
   25.075458 
   25.104241 
   25.131263 
   25.157291 
   25.183122 
   25.209149 
   25.235379 
   25.261922 
   25.288421 
   25.313995 
   25.337902 
   25.359874 
   25.380317 
   25.400264 
   25.420309 
   25.440779 
   25.461716 
   25.483157 
   25.505235 
    25.52786 
   25.551107 
   25.574979 
   25.599333 
   25.623918 
   25.648264 
   25.671487 
   25.692509 
   25.711132 
   25.728458 
   25.745451 
   25.762598 
   25.780249 
   25.798393 
   25.817166 
   25.836507 
    25.85635 
   25.876626 
   25.896906 
   25.916721 
   25.935182 
   25.951313 
   25.965439 
   25.978533 
   25.991406 
   26.004522 
   26.017964 
   26.031787 
   26.046087 
    26.06088 
    26.07606 
   26.091779 
   26.107841 
   26.124226 
   26.140924 
   26.157977 
   26.175363 
   26.193118 
   26.211315 
    26.22986 
   26.248643 
    26.26778 
   26.287308 
   26.307252 
   26.327491 
   26.348059 
   26.368936 
   26.390247 
   26.411998 
   26.434233 
   26.456914 
   26.480083 
   26.503763 
   26.527995 
   26.552713 
   26.578001 
   26.603949 
    26.63044 
   26.657368 
   26.684489 
   26.711334 
   26.737293 
   26.761634 
   26.783601 
   26.802367 
   26.817047 
   26.827697 
   26.835279 
   26.840754 
   26.845134 
   26.849219 
   26.853502 
   26.858396 
   26.863994 
   26.870427 
   26.877639 
   26.885502 
   26.893981 
   26.903081 
   26.912755 
   26.923191 
   26.934283 
   26.945977 
   26.958357 
   26.971395 
   26.985177 
   26.999541 
   27.014571 
   27.030409 
   27.046939 
    27.06429 
   27.081885 
   27.099268 
    27.11475 
   27.125763 
   27.130498 
    27.13013 
   27.127665 
   27.124647 
   27.122057 
   27.120146 
   27.119056 
   27.118779 
   27.119344 
   27.120848 
   27.123039 
   27.125987 
   27.129572 
   27.133733 
   27.138386 
   27.143419 
   27.148541 
   27.153513 
   27.158016 
   27.161694 
   27.164675 
    27.16702 
    27.16878 
   27.169358 
   27.168098 
   27.164607 
   27.159642 
    27.15411 
   27.148819 
   27.144051 
   27.139933 
   27.136513 
    27.13394 
   27.132248 
   27.131456 
   27.131396 
   27.131991 
    27.13324 
   27.134976 
   27.136712 
   27.137331 
   27.135451 
   27.130777 
   27.124288 
   27.117391 
   27.110969 
   27.105165 
   27.100092 
   27.095682 
   27.091981 
   27.088874 
   27.086284 
   27.083853 
   27.080904 
   27.076853 
   27.071292 
   27.064475 
   27.056905 
   27.049183 
   27.041836 
   27.034928 
    27.02844 
   27.022559 
    27.01728 
   27.012519 
   27.008236 
   27.004226 
   27.000092 
   26.995548 
   26.990012 
   26.983378 
   26.976019 
   26.968303 
   26.960685 
   26.953439 
   26.946581 
   26.940261 
   26.934479 
   26.929332 
   26.924862 
   26.920991 
   26.917598 
   26.914643 
   26.911709 
   26.908037 
   26.902922 
   26.895949 
   26.887747 
   26.879206 
   26.870873 
   26.862882 
   26.855327 
   26.848292 
   26.841892 
   26.836081 
   26.830856 
   26.826179 
   26.822118 
   26.818587 
   26.815668 
   26.813345 
   26.811536 
     26.8102 
   26.809468 
   26.809159 
   26.809491 
   26.810435 
   26.811944 
   26.814086 
   26.816733 
   26.819643 
   26.822532 
   26.824765 
   26.825752 
   26.825182 
   26.823568 
   26.821632 
   26.819768 
   26.818119 
   26.816554 
   26.814725 
   26.812106 
   26.808194 
   26.803021 
   26.797168 
    26.79135 
   26.785772 
   26.780706 
   26.776362 
   26.772693 
   26.769588 
   26.767044 
   26.764906 
   26.763053 
   26.760984 
   26.757972 
   26.753453 
   26.747514 
   26.740688 
   26.733509 
   26.726369 
   26.719647 
   26.713316 
   26.707446 
   26.702031 
   26.697115 
   26.692801 
   26.688868 
   26.685362 
   26.682333 
   26.679553 
   26.677251 
    26.67546 
   26.674196 
   26.673349 
   26.673024 
   26.673053 
   26.673768 
   26.674927 
   26.676441 
   26.678146 
   26.680018 
   26.681604 
   26.682354 
   26.681302 
   26.677849 
   26.672533 
   26.666185 
   26.659684 
   26.653415 
   26.647545 
   26.641991 
   26.636974 
   26.632535 
   26.628527 
   26.624989 
   26.621901 
   26.619106 
   26.616723 
   26.614662 
   26.612877 
   26.611478 
   26.610332 
   26.609594 
   26.609295 
   26.609434 
   26.609974 
   26.610793 
   26.611947 
   26.613612 
   26.615492 
    26.61786 
   26.620606 
   26.623777 
   26.627231 
   26.630789 
   26.633905 
   26.636097 
    26.63663 
   26.635205 
   26.632261 
   26.628624 
   26.624964 
   26.621499 
   26.618475 
   26.615939 
   26.614073 
   26.612856 
   26.612261 
    26.61228 
   26.612785 
   26.613408 
   26.613842 
   26.613592 
   26.611513 
   26.607471 
   26.601942 
   26.595774 
   26.589588 
   26.583641 
   26.578183 
   26.573275 
   26.568917 
   26.564932 
   26.561355 
   26.558217 
   26.555515 
   26.553214 
   26.551435 
   26.550031 
   26.549153 
   26.548734 
   26.548739 
   26.549138 
   26.549828 
   26.550945 
   26.552533 
   26.554559 
   26.557042 
   26.560044 
   26.563494 
   26.567432 
   26.571725 
   26.576104 
   26.580292 
   26.583624 
    26.58544 
   26.585459 
    26.58386 
   26.581358 
   26.578609 
   26.575959 
   26.573619 
   26.571833 
   26.570631 
   26.569959 
   26.569833 
   26.570303 
   26.571257 
   26.572608 
   26.574501 
    26.57674 
   26.579502 
   26.582726 
   26.586524 
   26.590781 
   26.595578 
    26.60097 
   26.606966 
   26.613535 
   26.620661 
   26.628385 
    26.63661 
   26.645196 
   26.654037 
   26.662565 
   26.670392 
   26.676845 
   26.681684 
   26.685454 
   26.688931 
   26.692595 
    26.69662 
   26.701229 
   26.706525 
   26.712578 
   26.719368 
   26.726947 
   26.735126 
   26.743507 
   26.751364 
   26.758051 
   26.763113 
   26.767187 
   26.770981 
   26.775055 
   26.779744 
   26.785128 
   26.791225 
   26.797731 
   26.803975 
   26.809039 
   26.811952 
   26.811956 
   26.809255 
   26.804734 
   26.799301 
   26.793645 
   26.788212 
   26.783186 
   26.778783 
   26.775032 
   26.771919 
   26.769434 
    26.76767 
   26.766713 
   26.766463 
   26.766915 
   26.768024 
   26.769778 
   26.772219 
   26.775108 
   26.778455 
   26.782466 
   26.786837 
   26.791899 
   26.797512 
   26.803601 
   26.810173 
   26.817379 
   26.825272 
   26.833722 
   26.842641 
   26.852331 
   26.862727 
   26.873737 
   26.885442 
   26.897814 
   26.910603 
   26.923385 
   26.935711 
   26.946482 
   26.954752 
   26.959999 
    26.96249 
   26.963064 
   26.962969 
   26.962915 
   26.963259 
   26.964188 
   26.965613 
   26.967552 
   26.969791 
   26.971959 
   26.973675 
   26.974649 
   26.974661 
   26.973987 
   26.973116 
   26.972322 
   26.971769 
   26.971568 
   26.971877 
   26.972717 
   26.974053 
   26.975973 
   26.978544 
   26.981697 
   26.985352 
   26.989499 
    26.99426 
   26.999647 
   27.005584 
   27.012089 
   27.019193 
   27.026828 
   27.035068 
   27.043854 
   27.053144 
   27.063052 
   27.073515 
   27.084556 
   27.096239 
   27.108627 
   27.121754 
   27.135547 
   27.149855 
   27.164692 
   27.179843 
   27.194711 
     27.2083 
   27.219746 
   27.229565 
   27.238825 
    27.24816 
    27.25803 
   27.268591 
   27.279864 
   27.291614 
   27.303641 
   27.315784 
   27.327861 
    27.33985 
   27.351762 
   27.363199 
   27.373655 
   27.382329 
   27.388577 
   27.392376 
   27.393657 
   27.392279 
   27.388243 
    27.38182 
   27.373986 
   27.365691 
   27.357618 
   27.350342 
   27.344038 
   27.338704 
   27.334312 
   27.330582 
   27.327038 
   27.323264 
     27.3186 
   27.312848 
   27.306504 
   27.300067 
   27.294043 
   27.288687 
   27.284163 
   27.280495 
   27.277519 
   27.275334 
   27.273814 
   27.272899 
   27.272464 
   27.272281 
   27.272098 
   27.272082 
   27.272024 
    27.27202 
   27.272221 
   27.272795 
   27.273784 
   27.275294 
   27.277488 
   27.280258 
   27.283697 
   27.287693 
   27.292022 
   27.296089 
   27.299305 
   27.301393 
   27.302733 
   27.303724 
   27.304842 
   27.306518 
   27.308988 
   27.312242 
   27.316321 
   27.321407 
   27.327413 
   27.334162 
    27.34133 
   27.348411 
   27.354761 
   27.360019 
   27.364631 
   27.368878 
   27.373449 
   27.378476 
   27.384057 
   27.389924 
   27.395342 
   27.399467 
   27.401257 
   27.400258 
   27.396362 
   27.389948 
   27.381771 
   27.372915 
   27.364206 
   27.356234 
   27.349007 
   27.342808 
   27.337589 
   27.333474 
    27.33044 
   27.328382 
   27.327299 
    27.32724 
   27.328136 
   27.330119 
   27.333212 
    27.33733 
    27.34262 
   27.348915 
   27.356147 
   27.364361 
   27.373599 
   27.383674 
   27.394266 
   27.405164 
   27.415499 
   27.424554 
   27.431728 
   27.436624 
   27.439629 
    27.44154 
   27.443037 
   27.444487 
    27.44593 
   27.447497 
   27.449298 
   27.451471 
   27.454171 
   27.457614 
    27.46179 
   27.466615 
   27.471563 
   27.476235 
   27.479931 
   27.482355 
   27.483912 
   27.484836 
   27.484803 
   27.483033 
   27.479814 
   27.476056 
   27.472581 
   27.469937 
   27.468258 
    27.46773 
   27.468327 
   27.470018 
   27.472588 
   27.475826 
   27.479521 
   27.483191 
   27.486378 
   27.489294 
   27.492121 
   27.495216 
   27.498864 
   27.503055 
   27.507473 
   27.511769 
   27.515396 
   27.517897 
   27.519121 
   27.519375 
   27.519259 
     27.5195 
   27.520464 
   27.522394 
   27.525266 
   27.529191 
   27.534194 
   27.539975 
   27.546056 
      27.552 
   27.556843 
   27.559671 
   27.560006 
   27.558036 
   27.554788 
   27.551279 
   27.548183 
    27.54592 
   27.544626 
   27.544324 
   27.545033 
   27.546832 
   27.549517 
   27.552862 
   27.556574 
   27.560049 
   27.562873 
   27.564512 
   27.564843 
   27.564072 
   27.562331 
   27.560041 
   27.557324 
   27.554516 
   27.551945 
    27.54998 
   27.548785 
   27.548377 
   27.548923 
   27.550415 
   27.552874 
   27.556248 
   27.560691 
   27.565873 
   27.572063 
   27.579319 
   27.587568 
   27.596586 
   27.606485 
   27.617455 
    27.62936 
   27.642231 
   27.656279 
   27.671407 
   27.687743 
   27.705368 
   27.724226 
   27.744018 
   27.764337 
   27.784304 
   27.802498 
   27.818013 
   27.830683 
   27.840492 
   27.847323 
    27.85106 
    27.85164 
   27.849186 
   27.844515 
   27.838755 
   27.832843 
   27.826726 
   27.820279 
   27.813279 
   27.805629 
   27.797176 
   27.787998 
   27.778235 
   27.767827 
    27.75662 
   27.744567 
   27.732036 
   27.719505 
   27.707314 
   27.695469 
   27.683759 
    27.67184 
   27.659343 
   27.646251 
   27.632836 
   27.619669 
   27.607127 
   27.595447 
    27.58494 
   27.575524 
   27.567246 
   27.560106 
   27.554292 
   27.549681 
   27.546154 
   27.543631 
    27.54219 
    27.54184 
    27.54246 
    27.54391 
   27.546019 
   27.548627 
   27.551313 
   27.553491 
   27.554648 
   27.554176 
   27.552168 
   27.548874 
   27.544939 
   27.540913 
   27.537079 
   27.533755 
   27.531137 
    27.52932 
   27.528149 
   27.527621 
   27.527526 
   27.527548 
   27.527359 
   27.526953 
   27.526779 
   27.527155 
    27.52822 
   27.530173 
   27.532987 
   27.536658 
   27.540766 
   27.544845 
    27.54831 
   27.550949 
   27.553046 
   27.554962 
   27.557284 
   27.560017 
   27.563166 
   27.566354 
   27.569086 
    27.57093 
   27.572348 
   27.573728 
   27.575584 
   27.578173 
   27.581788 
   27.586358 
   27.591676 
   27.597605 
   27.603796 
   27.609963 
   27.615709 
   27.620664 
   27.624784 
    27.62812 
   27.631285 
   27.634669 
   27.638579 
   27.643073 
   27.647804 
   27.652516 
   27.656642 
   27.659716 
   27.661735 
   27.662925 
   27.663668 
   27.664235 
   27.664331 
   27.663242 
    27.66061 
   27.656618 
   27.651442 
   27.644973 
    27.63708 
   27.627963 
   27.618341 
   27.609191 
   27.600996 
   27.594009 
   27.588359 
    27.58401 
   27.580843 
   27.578859 
   27.578001 
   27.578065 
   27.578825 
   27.580214 
   27.582044 
   27.584388 
   27.587077 
   27.590144 
   27.593517 
   27.597143 
    27.60131 
   27.606111 
   27.611532 
   27.617567 
    27.62423 
   27.631467 
    27.63884 
   27.645999 
   27.652207 
   27.656614 
   27.658499 
   27.658206 
   27.656655 
   27.654761 
   27.653082 
   27.652079 
   27.651829 
   27.652019 
   27.652093 
   27.650962 
   27.647698 
   27.642074 
    27.63484 
   27.626818 
    27.61896 
    27.61166 
   27.605207 
   27.599716 
   27.595245 
   27.591973 
   27.589694 
   27.588515 
    27.58816 
   27.588648 
   27.589877 
   27.591695 
   27.593853 
   27.596195 
   27.598685 
   27.601333 
   27.604092 
   27.606997 
   27.609992 
   27.613248 
   27.616827 
   27.620827 
   27.625338 
   27.630683 
     27.6368 
   27.643928 
   27.652257 
   27.661656 
   27.672019 
   27.683347 
   27.695343 
   27.707591 
   27.719412 
   27.729935 
   27.738288 
   27.743893 
   27.746514 
   27.746622 
    27.74506 
   27.742427 
   27.739006 
   27.735093 
   27.731108 
   27.727456 
    27.72436 
   27.721908 
   27.720263 
    27.71925 
   27.718874 
   27.718965 
   27.719332 
   27.719856 
   27.720289 
   27.720335 
    27.71986 
   27.718813 
   27.717471 
   27.716336 
   27.715716 
   27.716035 
   27.717261 
   27.719205 
   27.721244 
   27.722153 
   27.721211 
   27.718895 
   27.716625 
   27.715199 
    27.71491 
      27.716 
   27.718402 
    27.72184 
   27.726009 
   27.730377 
   27.734467 
   27.737811 
   27.739512 
   27.739236 
   27.736797 
   27.732312 
   27.726232 
   27.719182 
   27.711675 
   27.704159 
   27.696887 
   27.690041 
   27.683818 
     27.6782 
    27.67331 
   27.669198 
   27.665721 
   27.662463 
    27.65895 
   27.654741 
   27.649887 
   27.644764 
    27.63988 
   27.635699 
   27.632499 
   27.630565 
   27.629903 
    27.63058 
   27.632701 
   27.636131 
    27.64088 
   27.646937 
   27.654227 
   27.662684 
   27.671958 
   27.681842 
   27.691694 
   27.701099 
   27.709658 
   27.717285 
    27.72425 
   27.730489 
   27.735544 
   27.738846 
   27.739743 
   27.737774 
   27.733104 
   27.725938 
   27.716519 
   27.704713 
   27.690801 
   27.675591 
   27.660189 
   27.645385 
   27.631668 
    27.61911 
   27.607898 
   27.597993 
   27.589261 
   27.581806 
    27.57575 
   27.570892 
   27.567219 
   27.564567 
   27.563079 
   27.562806 
   27.563657 
   27.565441 
   27.568144 
   27.571745 
   27.576291 
   27.581804 
   27.588072 
   27.594889 
   27.602259 
   27.609708 
   27.617007 
   27.623811 
   27.629896 
   27.635559 
   27.641062 
    27.64649 
   27.652007 
   27.657443 
   27.662167 
   27.665662 
   27.667481 
   27.667601 
   27.666051 
   27.663191 
     27.6596 
   27.655709 
   27.651935 
   27.648388 
   27.644626 
   27.639897 
   27.634035 
   27.627323 
   27.620486 
   27.614187 
    27.60831 
   27.603057 
    27.59817 
   27.593389 
   27.588315 
   27.582722 
    27.57692 
    27.57127 
   27.566152 
   27.561864 
   27.558451 
   27.556108 
   27.554925 
   27.554947 
   27.556117 
   27.558453 
   27.561869 
   27.566349 
   27.571727 
   27.577899 
   27.584734 
   27.591899 
   27.599299 
   27.606427 
   27.613111 
   27.619218 
   27.624798 
   27.629934 
   27.634828 
   27.639535 
   27.643919 
   27.647585 
   27.650063 
   27.650892 
   27.650039 
    27.64767 
   27.644195 
   27.640329 
   27.636624 
   27.633392 
   27.630854 
    27.62916 
   27.628475 
   27.628888 
   27.630398 
   27.633156 
   27.637298 
    27.64276 
   27.649494 
   27.657474 
   27.666735 
   27.677144 
   27.688693 
   27.701259 
   27.714601 
   27.728498 
    27.74274 
   27.757005 
   27.770794 
   27.784102 
   27.797223 
   27.810192 
   27.822965 
   27.835637 
   27.847367 
   27.857486 
   27.864662 
   27.868004 
   27.867584 
   27.864569 
   27.860098 
   27.854974 
   27.849643 
   27.844146 
   27.838691 
   27.833386 
   27.828343 
   27.823559 
   27.819073 
   27.814908 
    27.81104 
   27.807706 
   27.805091 
   27.803278 
    27.80245 
   27.802695 
   27.804015 
   27.806412 
   27.809642 
   27.813435 
   27.817654 
    27.82208 
   27.826397 
   27.830162 
   27.833349 
   27.835633 
   27.837113 
     27.8379 
    27.83826 
   27.838358 
    27.83843 
   27.838442 
   27.838619 
   27.839108 
   27.840182 
   27.842114 
   27.845156 
    27.84927 
   27.854569 
     27.8609 
   27.868405 
   27.876822 
   27.885742 
    27.89446 
   27.902203 
   27.907627 
   27.909423 
   27.907847 
   27.904474 
   27.900707 
   27.897238 
   27.894329 
   27.892198 
   27.890895 
   27.890405 
   27.891022 
   27.892678 
    27.89531 
    27.89883 
    27.90285 
   27.906927 
   27.910446 
   27.913083 
   27.914807 
    27.91561 
   27.915416 
   27.914245 
    27.91173 
    27.90811 
   27.903616 
   27.898781 
   27.893833 
   27.889048 
   27.884324 
   27.879249 
   27.873322 
   27.866217 
   27.858488 
   27.850303 
   27.842079 
   27.833931 
   27.825951 
   27.818146 
   27.810535 
   27.803106 
   27.795733 
   27.788225 
   27.780765 
   27.773536 
   27.766639 
   27.760556 
   27.755444 
   27.751371 
   27.748496 
   27.746943 
   27.746668 
   27.747555 
    27.74936 
    27.75193 
   27.754918 
   27.757828 
   27.760381 
   27.762159 
   27.762944 
   27.762499 
   27.760927 
   27.758586 
   27.755837 
   27.752943 
   27.750395 
   27.748204 
   27.746297 
   27.744126 
   27.741545 
   27.738301 
   27.734701 
   27.730834 
   27.727055 
   27.723201 
   27.719175 
   27.714984 
     27.7106 
   27.706106 
   27.701545 
   27.697293 
   27.693562 
   27.690519 
   27.688433 
    27.68725 
   27.687182 
   27.688242 
   27.690136 
   27.692873 
   27.696152 
   27.699651 
   27.702986 
   27.705981 
   27.708393 
   27.710301 
   27.711921 
   27.713494 
   27.715129 
   27.716995 
   27.719205 
   27.721725 
   27.724635 
   27.727926 
   27.731593 
   27.735119 
   27.737997 
   27.740209 
   27.741839 
   27.743119 
   27.744392 
   27.745584 
   27.746635 
     27.7474 
   27.747694 
   27.747409 
   27.746663 
   27.745194 
   27.743069 
   27.740539 
   27.738167 
   27.736225 
   27.734877 
   27.734179 
   27.733907 
   27.733709 
   27.733263 
   27.732121 
    27.73001 
   27.727157 
   27.723788 
   27.720158 
   27.716727 
   27.713754 
   27.711135 
   27.708954 
    27.70736 
   27.706196 
   27.705583 
   27.705588 
   27.706112 
    27.70742 
   27.709473 
   27.712273 
    27.71569 
   27.719818 
   27.724649 
   27.729881 
   27.735342 
   27.741046 
   27.746912 
   27.752994 
   27.759255 
    27.76589 
   27.773114 
   27.781163 
   27.790033 
   27.799694 
   27.809921 
   27.820453 
   27.830561 
   27.839642 
   27.846976 
   27.852028 
   27.854914 
   27.856001 
   27.855814 
   27.854821 
   27.853393 
   27.851627 
   27.849638 
   27.847279 
   27.844493 
   27.841249 
    27.83779 
   27.834328 
   27.831493 
   27.829456 
    27.82816 
   27.827785 
   27.828255 
   27.829421 
   27.831297 
   27.833906 
   27.836971 
   27.840476 
   27.844443 
   27.848571 
   27.852911 
   27.857448 
   27.862369 
   27.867749 
   27.873761 
   27.880539 
   27.888263 
   27.897049 
   27.906842 
   27.917839 
    27.92973 
   27.942249 
   27.954929 
   27.967429 
   27.979364 
   27.990293 
   27.999815 
   28.007439 
   28.012597 
    28.01484 
   28.014507 
   28.012159 
   28.008483 
   28.004271 
   28.000148 
   27.996464 
   27.993097 
   27.989602 
   27.985017 
   27.977932 
   27.967957 
   27.956179 
   27.943826 
   27.931724 
   27.920017 
   27.908688 
   27.897872 
   27.887433 
   27.877635 
   27.868775 
   27.860994 
    27.85451 
   27.849512 
   27.846079 
   27.844248 
   27.843951 
   27.845284 
   27.848177 
   27.852574 
   27.858461 
   27.865699 
   27.873943 
   27.883204 
   27.893117 
   27.903168 
   27.912967 
    27.92232 
   27.930641 
   27.937227 
   27.941209 
   27.942064 
   27.938927 
   27.931489 
   27.920399 
   27.906628 
   27.891276 
   27.875309 
    27.85938 
   27.844211 
   27.830054 
    27.81716 
   27.805519 
   27.795053 
   27.785481 
   27.776606 
   27.768244 
   27.760256 
   27.752829 
   27.746345 
   27.741071 
   27.737196 
   27.734843 
   27.733725 
   27.733828 
   27.735211 
   27.737672 
   27.740835 
   27.744498 
   27.748162 
   27.751633 
    27.75453 
   27.756813 
   27.758428 
   27.759231 
   27.759165 
   27.758236 
   27.756749 
   27.754925 
   27.752805 
   27.750318 
   27.747599 
   27.744469 
   27.740904 
   27.737358 
   27.734095 
   27.731084 
   27.728323 
   27.725757 
   27.723653 
   27.722345 
   27.722036 
   27.722739 
   27.724477 
   27.726975 
    27.72985 
   27.732872 
   27.735853 
   27.738782 
   27.741934 
   27.745271 
   27.748479 
   27.751242 
   27.752955 
   27.753109 
   27.751758 
   27.748885 
   27.744638 
   27.739199 
   27.732721 
   27.725445 
   27.717643 
   27.709524 
   27.701745 
   27.694544 
   27.688125 
   27.682771 
    27.67866 
   27.676092 
   27.675157 
   27.675803 
    27.67803 
    27.68181 
   27.686978 
   27.693425 
   27.700963 
   27.709159 
   27.717697 
   27.726616 
   27.735769 
   27.745072 
    27.75456 
   27.763852 
   27.772482 
   27.779597 
    27.78464 
   27.787689 
   27.789345 
   27.789932 
   27.789952 
   27.789608 
   27.788765 
   27.787501 
   27.785692 
   27.783138 
   27.779737 
   27.775342 
   27.769905 
   27.763751 
   27.757226 
   27.750853 
   27.745028 
   27.740285 
   27.736705 
   27.734575 
   27.733778 
   27.734394 
   27.736404 
   27.739802 
   27.744422 
   27.749922 
   27.756064 
   27.762824 
   27.769827 
   27.776893 
   27.783754 
   27.790344 
   27.796613 
   27.802246 
   27.807263 
   27.811646 
   27.815705 
   27.819244 
   27.822278 
   27.825068 
   27.827602 
   27.829794 
   27.831721 
   27.833456 
   27.835093 
   27.836601 
   27.837996 
   27.839455 
   27.841016 
   27.842763 
   27.844833 
   27.847534 
   27.850918 
   27.855242 
   27.860561 
   27.866772 
   27.873551 
   27.880566 
   27.887004 
   27.892527 
   27.896768 
   27.900127 
   27.902885 
   27.905415 
   27.907724 
   27.910022 
   27.912362 
   27.914829 
   27.917462 
   27.920138 
   27.922882 
   27.925476 
   27.927749 
   27.929467 
   27.930673 
   27.931343 
   27.931613 
    27.93147 
   27.930948 
   27.930177 
   27.929308 
   27.928542 
   27.928107 
   27.928043 
   27.928348 
   27.929166 
   27.930724 
   27.933117 
   27.936433 
   27.940662 
    27.94566 
   27.950855 
   27.955238 
   27.957549 
   27.957547 
   27.955731 
   27.952881 
   27.949486 
   27.945793 
   27.942141 
   27.938688 
   27.935613 
   27.933009 
   27.930987 
   27.929551 
   27.928546 
   27.927874 
   27.927296 
   27.926762 
   27.926302 
   27.925846 
   27.925454 
   27.925177 
   27.925107 
   27.925225 
   27.925642 
   27.926224 
    27.92688 
   27.927733 
   27.928801 
   27.930072 
   27.931587 
    27.93325 
   27.935072 
   27.936967 
   27.938849 
   27.940199 
    27.94065 
   27.939852 
   27.938045 
   27.935479 
   27.932396 
    27.92882 
   27.924781 
   27.920167 
   27.915186 
   27.910046 
   27.904947 
   27.900077 
   27.895643 
   27.891678 
   27.888177 
   27.884926 
   27.881864 
     27.8789 
   27.876006 
   27.873178 
   27.870492 
    27.86804 
   27.866025 
   27.864386 
   27.863126 
   27.862216 
   27.861708 
   27.861417 
   27.861262 
   27.861138 
   27.861017 
   27.860925 
    27.86095 
   27.861167 
   27.861828 
   27.862931 
   27.864689 
   27.867149 
   27.870227 
   27.873799 
   27.877807 
   27.882185 
    27.88705 
   27.892454 
   27.898512 
   27.905398 
   27.913139 
   27.921625 
   27.930736 
   27.940132 
   27.949518 
   27.958223 
   27.965483 
   27.970988 
   27.974322 
   27.975298 
    27.97426 
   27.971423 
   27.967414 
   27.962634 
     27.9578 
   27.953231 
   27.949127 
   27.945614 
   27.942516 
   27.939692 
   27.937112 
   27.934755 
   27.932513 
   27.930695 
   27.929539 
   27.929113 
   27.929554 
   27.930855 
   27.933157 
   27.935922 
   27.938852 
   27.941413 
   27.942778 
   27.942385 
   27.940332 
   27.937366 
   27.934333 
   27.931785 
   27.929977 
   27.928934 
   27.928888 
   27.929881 
   27.931661 
   27.934242 
   27.937243 
   27.940397 
   27.943506 
   27.946417 
   27.949212 
   27.951812 
   27.954304 
   27.956865 
    27.95948 
   27.962207 
    27.96479 
   27.966815 
   27.967962 
   27.967509 
   27.964983 
   27.960218 
   27.953882 
   27.946692 
   27.939407 
   27.932613 
   27.926468 
   27.921013 
   27.916061 
   27.911396 
   27.906691 
    27.90189 
   27.896977 
   27.892241 
   27.887972 
   27.884344 
   27.881506 
   27.879595 
   27.878467 
   27.878186 
   27.878581 
   27.879469 
   27.880598 
   27.881625 
   27.882335 
   27.882371 
   27.881725 
   27.880892 
   27.880131 
   27.879648 
   27.879567 
   27.879865 
    27.88063 
   27.881894 
     27.8838 
   27.886537 
   27.890232 
    27.89497 
   27.900709 
   27.907614 
    27.91559 
   27.924543 
    27.93451 
   27.945055 
   27.956129 
   27.967502 
    27.97891 
    27.98999 
   28.000547 
   28.010168 
    28.01847 
    28.02556 
   28.031568 
    28.03614 
   28.038511 
     28.0377 
   28.033187 
   28.025547 
    28.01559 
   28.004021 
   27.991783 
   27.979454 
   27.967722 
   27.956941 
   27.947044 
   27.937979 
   27.929678 
   27.922107 
    27.91521 
   27.908963 
   27.903396 
    27.89833 
    27.89371 
   27.889418 
   27.885405 
   27.881806 
   27.878736 
   27.876395 
   27.874804 
   27.874005 
   27.873921 
   27.874575 
   27.875806 
   27.877346 
   27.879373 
   27.881987 
   27.885115 
   27.888739 
    27.89273 
   27.897031 
   27.901567 
   27.906124 
    27.91065 
   27.915017 
   27.918803 
   27.921743 
   27.923636 
   27.924213 
   27.924028 
   27.923536 
   27.923125 
    27.92312 
    27.92361 
   27.924593 
   27.926036 
   27.927594 
   27.929359 
   27.931218 
   27.933116 
   27.935205 
   27.937589 
   27.940258 
   27.943132 
   27.945952 
   27.948137 
   27.949548 
   27.950183 
   27.950327 
    27.95028 
   27.950162 
   27.950262 
   27.950865 
   27.951999 
   27.953687 
   27.955582 
    27.95722 
    27.95804 
   27.957799 
    27.95697 
   27.955799 
   27.954684 
   27.953851 
   27.953244 
   27.952841 
   27.952387 
   27.951597 
   27.950303 
   27.948716 
   27.947021 
   27.945291 
   27.943707 
   27.942021 
       27.94 
   27.937203 
   27.933417 
   27.928832 
   27.923975 
   27.919051 
    27.91433 
   27.909956 
   27.905874 
   27.902047 
    27.89844 
   27.895165 
   27.892408 
   27.890321 
   27.888894 
   27.888395 
   27.889067 
     27.8908 
   27.893631 
    27.89765 
   27.902787 
   27.908829 
    27.91548 
   27.922589 
   27.929736 
   27.936653 
   27.942927 
   27.948095 
   27.951909 
   27.954407 
   27.955848 
   27.956717 
   27.957167 
   27.957436 
   27.957791 
   27.958157 
   27.958647 
   27.959223 
   27.960024 
   27.961135 
   27.962579 
   27.964533 
   27.967027 
   27.969801 
   27.972872 
   27.976186 
   27.979541 
   27.983075 
   27.986689 
   27.989912 
   27.992228 
   27.993146 
    27.99224 
   27.989572 
   27.985782 
   27.981332 
   27.976654 
   27.972069 
   27.967707 
   27.963583 
   27.959793 
   27.956441 
   27.953365 
   27.950812 
   27.948819 
   27.947611 
   27.947168 
    27.94744 
   27.948413 
   27.949902 
   27.951831 
   27.954001 
   27.956136 
   27.957614 
    27.95772 
   27.956239 
   27.953009 
   27.948321 
   27.942636 
   27.936537 
   27.930509 
   27.924959 
   27.920311 
   27.916634 
   27.914126 
     27.9128 
    27.91265 
   27.913616 
   27.915611 
   27.918393 
   27.921684 
   27.925205 
   27.928348 
   27.930764 
   27.932309 
   27.932909 
   27.932781 
   27.932379 
   27.932089 
   27.932133 
    27.93275 
   27.933801 
   27.935461 
   27.937442 
   27.939624 
   27.941698 
   27.943373 
   27.944531 
   27.945372 
   27.945773 
   27.945939 
   27.946144 
   27.946642 
   27.947662 
    27.94951 
   27.952324 
   27.956041 
   27.960824 
   27.966564 
   27.972986 
   27.979932 
   27.986961 
   27.993395 
   27.999068 
   28.003883 
   28.008141 
   28.012025 
    28.01566 
   28.019162 
   28.022376 
   28.024821 
   28.026033 
   28.025489 
    28.02309 
   28.019465 
   28.014938 
   28.010059 
   28.004822 
    27.99897 
   27.992427 
   27.985215 
    27.97736 
   27.969188 
   27.960874 
   27.952478 
   27.944406 
   27.936788 
   27.930019 
   27.924192 
   27.919303 
   27.915541 
   27.912971 
    27.91161 
   27.911575 
   27.912806 
   27.915285 
    27.91894 
   27.923559 
   27.928938 
   27.935031 
   27.941482 
   27.948058 
   27.954508 
   27.960433 
   27.965393 
   27.968968 
   27.970846 
   27.970895 
   27.969158 
   27.965727 
   27.961144 
   27.955623 
   27.949522 
   27.943103 
   27.936634 
    27.93007 
   27.923359 
   27.916463 
   27.909592 
   27.902859 
    27.89646 
   27.890553 
   27.885499 
    27.88136 
   27.878268 
   27.876333 
   27.875479 
   27.875754 
   27.877066 
   27.879386 
   27.882686 
    27.88684 
   27.891981 
   27.898137 
   27.905336 
    27.91358 
   27.922834 
    27.93295 
   27.943753 
   27.954916 
   27.966171 
   27.977198 
   27.987501 
   27.996815 
   28.004975 
   28.011678 
   28.016996 
   28.021019 
   28.023847 
   28.025588 
   28.026228 
   28.025663 
   28.023856 
   28.020861 
   28.016731 
   28.011624 
   28.005462 
   27.998042 
   27.989728 
   27.980958 
   27.972485 
   27.964605 
   27.957579 
   27.951484 
   27.946282 
   27.942155 
   27.939158 
   27.937418 
   27.936984 
   27.937812 
   27.939785 
   27.942685 
   27.946313 
   27.950384 
    27.95478 
     27.9593 
   27.963525 
   27.967353 
   27.970331 
   27.972218 
   27.972777 
   27.972005 
   27.970009 
   27.967261 
   27.964128 
   27.960806 
   27.957685 
   27.954963 
   27.952716 
   27.951024 
   27.950032 
   27.949586 
   27.949679 
   27.950117 
   27.950694 
   27.951456 
    27.95242 
   27.953675 
   27.955396 
   27.957648 
   27.960452 
   27.963865 
    27.96802 
   27.972845 
   27.978247 
   27.984238 
    27.99062 
   27.997153 
   28.003663 
   28.010124 
   28.016384 
   28.022298 
   28.027867 
   28.032713 
   28.036335 
   28.037992 
   28.037007 
   28.033325 
   28.027414 
   28.019927 
   28.011951 
   28.004097 
   27.996581 
   27.989866 
   27.984075 
     27.9792 
   27.975149 
   27.971794 
   27.968921 
   27.966454 
   27.964147 
   27.961901 
   27.959511 
   27.957308 
   27.955319 
   27.953727 
   27.952352 
   27.951137 
   27.949887 
   27.948658 
   27.947296 
   27.945804 
   27.944389 
   27.942972 
    27.94166 
   27.940333 
   27.938994 
   27.937608 
    27.93587 
   27.933904 
   27.931667 
    27.92914 
   27.926459 
     27.9237 
    27.92111 
    27.91872 
    27.91689 
   27.915743 
   27.915458 
   27.916064 
   27.917498 
   27.919658 
    27.92237 
   27.925386 
   27.928445 
   27.931048 
   27.933042 
   27.934426 
   27.935079 
   27.935034 
   27.934403 
   27.933405 
   27.931949 
   27.930265 
   27.928336 
   27.926488 
   27.924754 
   27.923385 
   27.922387 
   27.921602 
   27.920966 
   27.920351 
   27.919227 
   27.917428 
   27.915043 
   27.912188 
   27.909132 
   27.906102 
   27.903343 
   27.901241 
    27.90002 
   27.899907 
    27.90112 
   27.903603 
   27.907382 
   27.912242 
   27.918007 
   27.924337 
   27.930952 
   27.937357 
   27.943007 
   27.947438 
   27.950271 
   27.951285 
   27.950722 
   27.948881 
   27.946274 
   27.943067 
   27.939748 
   27.936552 
   27.933781 
   27.931747 
   27.930323 
   27.929564 
   27.929494 
   27.929817 
   27.930371 
   27.930981 
   27.931279 
   27.931054 
   27.930136 
   27.928705 
   27.926827 
   27.924785 
   27.922825 
   27.921228 
   27.920157 
   27.919562 
   27.919469 
   27.919774 
   27.920515 
   27.921711 
    27.92315 
    27.92503 
    27.92725 
   27.929816 
   27.932637 
    27.93575 
   27.939031 
   27.942352 
   27.945683 
   27.948797 
   27.951745 
   27.954566 
   27.957321 
    27.96026 
    27.96362 
    27.96736 
   27.971659 
   27.976407 
   27.981387 
   27.986542 
   27.991577 
    27.99631 
   28.000482 
    28.00416 
   28.007221 
   28.009633 
   28.011695 
    28.01346 
   28.015011 
   28.016698 
   28.018426 
   28.020011 
   28.021185 
   28.021233 
    28.01962 
   28.016146 
   28.011171 
   28.005743 
   28.000479 
   27.995902 
   27.992167 
   27.989343 
   27.987352 
   27.986212 
   27.985581 
   27.985237 
   27.985088 
   27.984948 
   27.984666 
   27.984372 
   27.983958 
   27.983269 
   27.982161 
    27.98075 
   27.979173 
   27.977328 
   27.975136 
   27.972527 
   27.969261 
   27.965292 
   27.960616 
   27.955198 
   27.949216 
   27.942864 
   27.936386 
   27.930082 
   27.924029 
   27.918402 
   27.913329 
   27.909018 
   27.905505 
     27.9028 
   27.901131 
   27.900478 
   27.900806 
   27.902148 
   27.904384 
   27.907342 
   27.910882 
   27.914654 
   27.918405 
   27.921918 
   27.925154 
   27.928209 
   27.931317 
   27.934381 
   27.937483 
   27.940502 
    27.94313 
   27.945086 
   27.946022 
   27.945934 
   27.944446 
   27.941595 
   27.937332 
   27.932051 
   27.926017 
   27.919718 
   27.913434 
   27.907473 
   27.901943 
   27.897125 
   27.893009 
   27.889788 
    27.88754 
   27.886354 
   27.886157 
   27.887053 
    27.88895 
   27.891792 
   27.895519 
   27.899923 
   27.904909 
   27.910273 
   27.915618 
   27.920683 
   27.925167 
   27.928997 
   27.931818 
   27.933715 
   27.934898 
   27.935445 
   27.935121 
   27.934104 
   27.932542 
   27.930542 
   27.928163 
   27.925407 
   27.922574 
   27.919673 
   27.916599 
   27.913392 
   27.909967 
   27.906487 
   27.903324 
   27.900671 
   27.898628 
   27.897329 
   27.896837 
   27.897242 
   27.898713 
   27.901104 
   27.904396 
   27.908493 
    27.91343 
   27.919035 
   27.925278 
   27.932164 
   27.939563 
   27.947413 
   27.955687 
   27.964017 
   27.972077 
   27.979627 
   27.986161 
    27.99143 
   27.995169 
   27.997142 
   27.997523 
   27.996886 
   27.995459 
   27.993487 
   27.991215 
   27.988911 
   27.986704 
   27.984668 
   27.982997 
   27.981862 
   27.981448 
   27.981884 
   27.983234 
   27.985498 
   27.988831 
   27.993058 
   27.997925 
   28.003102 
   28.007926 
   28.011506 
   28.013327 
   28.013807 
    28.01368 
   28.013468 
   28.013395 
    28.01345 
   28.013739 
    28.01389 
    28.01396 
   28.013733 
   28.013136 
   28.012082 
   28.010578 
   28.008553 
   28.005682 
    28.00184 
   27.997096 
   27.991409 
   27.985068 
   27.978222 
   27.971335 
   27.964583 
   27.958444 
   27.952865 
   27.947959 
   27.943684 
   27.940329 
   27.937686 
    27.93589 
   27.934742 
   27.934029 
   27.933839 
   27.934186 
   27.934888 
    27.93599 
   27.937226 
   27.938564 
   27.939844 
   27.940969 
   27.942005 
   27.942817 
   27.943368 
   27.943879 
   27.944467 
   27.945165 
   27.946011 
   27.947142 
   27.948444 
    27.94976 
   27.950878 
    27.95163 
    27.95173 
   27.951086 
   27.949717 
   27.947933 
   27.945874 
   27.943737 
   27.941859 
   27.940162 
   27.938696 
   27.937533 
   27.936569 
   27.935841 
   27.935267 
    27.93475 
   27.934207 
   27.933582 
   27.932783 
   27.931931 
   27.931089 
   27.930168 
   27.929344 
   27.928458 
   27.927786 
   27.927331 
   27.927304 
   27.927783 
    27.92881 
   27.930523 
   27.933044 
   27.936349 
   27.940353 
   27.944887 
   27.949761 
   27.954621 
   27.959204 
    27.96316 
   27.966312 
    27.96861 
   27.970061 
   27.970956 
   27.971546 
   27.972025 
   27.972595 
   27.973207 
   27.973842 
   27.974283 
    27.97433 
   27.974081 
   27.973452 
   27.972484 
   27.971392 
   27.970325 
   27.969498 
   27.968943 
   27.968881 
   27.969434 
   27.970707 
   27.972743 
   27.975736 
   27.979884 
   27.985022 
   27.991248 
   27.998527 
   28.006594 
    28.01531 
   28.024358 
   28.033309 
   28.041357 
   28.047549 
   28.051227 
   28.052178 
   28.050931 
   28.047988 
   28.043717 
    28.03836 
   28.032308 
   28.025765 
   28.018913 
   28.011928 
   28.004834 
   27.997623 
   27.990431 
    27.98327 
   27.976206 
   27.969344 
   27.963003 
   27.957032 
    27.95169 
   27.947143 
   27.943533 
   27.940727 
   27.938882 
   27.938029 
    27.93803 
   27.938992 
   27.940847 
   27.943466 
   27.946671 
   27.950548 
   27.954896 
   27.959497 
   27.964313 
   27.969269 
   27.974094 
   27.978572 
   27.982494 
   27.985662 
   27.988058 
   27.989547 
   27.989999 
    27.98936 
   27.987657 
    27.98515 
   27.982119 
   27.978503 
   27.974446 
   27.970176 
   27.966151 
   27.962639 
   27.959866 
   27.957855 
   27.956753 
   27.956585 
   27.957461 
   27.959358 
   27.962176 
   27.966069 
    27.97092 
   27.976733 
   27.983253 
   27.990549 
   27.998486 
   28.007073 
   28.016065 
   28.024964 
   28.033537 
   28.041338 
   28.047687 
   28.052255 
   28.054969 
   28.056155 
    28.05616 
   28.054965 
   28.052565 
   28.048846 
   28.043697 
    28.03731 
   28.029813 
   28.021517 
   28.012783 
   28.003791 
      27.995 
   27.986762 
   27.979399 
   27.972992 
   27.967517 
   27.962944 
   27.959413 
   27.956815 
   27.955139 
   27.954273 
   27.954325 
   27.955157 
   27.956614 
   27.958577 
   27.960963 
   27.963615 
   27.966518 
   27.969731 
   27.973253 
    27.97707 
    27.98122 
   27.985749 
   27.990567 
   27.995537 
   28.000412 
   28.004998 
   28.009014 
   28.012438 
   28.015139 
   28.017155 
   28.018476 
   28.019392 
   28.019951 
   28.020245 
    28.02038 
   28.020362 
    28.02018 
   28.019705 
   28.018762 
    28.01693 
   28.014026 
   28.010351 
   28.006235 
   28.002099 
   27.998255 
   27.994754 
   27.991682 
   27.989051 
   27.986798 
   27.985061 
   27.983777 
   27.983029 
   27.982801 
   27.983037 
    27.98393 
   27.985196 
   27.986719 
   27.988549 
   27.990434 
   27.992316 
   27.993972 
   27.995252 
   27.996173 
   27.996748 
     27.9971 
    27.99708 
   27.996961 
   27.996964 
   27.997057 
   27.997206 
   27.997473 
   27.997658 
   27.997685 
   27.997397 
   27.996973 
   27.996586 
   27.996312 
   27.996172 
   27.996293 
   27.996813 
   27.997805 
   27.999288 
     28.0014 
   28.004134 
   28.007477 
   28.011413 
   28.015811 
   28.020242 
   28.024208 
   28.027112 
   28.028659 
   28.028633 
   28.027526 
   28.025817 
   28.023593 
   28.021088 
    28.01835 
   28.015456 
   28.012423 
   28.009513 
   28.006654 
   28.003916 
   28.001498 
    27.99934 
   27.997438 
   27.995509 
   27.993448 
   27.991174 
   27.988642 
   27.985987 
   27.983116 
   27.980213 
    27.97753 
    27.97506 
   27.972968 
   27.971335 
   27.969981 
   27.969058 
   27.968624 
   27.968573 
   27.968971 
   27.969831 
   27.970965 
   27.972496 
   27.974156 
   27.975975 
   27.977777 
   27.979497 
   27.981003 
   27.982461 
   27.983653 
   27.984713 
   27.985684 
   27.986637 
   27.987675 
    27.98891 
   27.990249 
   27.991705 
   27.993255 
   27.994562 
   27.995486 
   27.996126 
   27.996391 
   27.996547 
   27.996795 
   27.997289 
   27.998232 
   27.999623 
   28.001598 
   28.004238 
   28.007255 
   28.010567 
   28.013763 
     28.0164 
   28.018025 
    28.01817 
   28.017163 
   28.015467 
   28.013526 
   28.011343 
   28.009044 
   28.006726 
   28.004258 
   28.001762 
   27.999321 
   27.996843 
   27.994529 
    27.99239 
   27.990451 
   27.988809 
   27.987512 
   27.986426 
   27.985422 
   27.984345 
   27.983078 
     27.9814 
   27.979251 
   27.976715 
   27.973895 
   27.971124 
   27.968503 
    27.96613 
    27.96404 
   27.962416 
   27.961222 
   27.960608 
     27.9605 
   27.960855 
   27.961624 
    27.96275 
   27.964066 
   27.965416 
   27.966715 
   27.967963 
   27.969116 
   27.970199 
   27.971274 
   27.972555 
   27.974108 
   27.975837 
    27.97797 
   27.980598 
   27.983739 
   27.987255 
   27.991317 
   27.995723 
   28.000314 
   28.005024 
   28.009409 
   28.013328 
    28.01659 
    28.01907 
   28.020943 
   28.022497 
   28.023888 
   28.025277 
   28.026816 
   28.028563 
   28.030398 
   28.031852 
    28.03241 
   28.031583 
   28.029354 
   28.025971 
   28.021876 
   28.017502 
   28.013137 
   28.008976 
   28.005283 
   28.002237 
   27.999693 
   27.997728 
   27.996442 
   27.995787 
   27.995544 
   27.995642 
   27.996164 
   27.997015 
   27.998212 
   27.999539 
   28.001033 
   28.002483 
   28.003704 
   28.004593 
   28.005044 
   28.004978 
   28.004364 
   28.003254 
   28.001729 
   27.999939 
   27.997951 
   27.996081 
   27.994641 
   27.993442 
   27.992508 
   27.991973 
   27.991937 
   27.992206 
    27.99281 
   27.993656 
   27.994669 
   27.995904 
   27.997373 
   27.999078 
   28.001027 
   28.003285 
   28.006079 
   28.009452 
   28.013263 
   28.017451 
   28.021853 
   28.026221 
   28.030159 
   28.033236 
   28.034973 
    28.03539 
   28.034588 
   28.033038 
   28.030827 
   28.028006 
   28.024767 
   28.021204 
   28.017263 
   28.013035 
   28.008752 
   28.004439 
   28.000321 
   27.996566 
   27.993232 
   27.990403 
   27.988008 
     27.9859 
   27.983972 
    27.98232 
   27.981015 
   27.979904 
   27.979047 
    27.97843 
   27.978244 
   27.978477 
      27.979 
   27.979819 
   27.981096 
   27.982729 
   27.984751 
   27.987057 
   27.989609 
   27.992367 
   27.995367 
   27.998798 
   28.002676 
   28.006966 
   28.011684 
   28.016882 
   28.022152 
   28.027299 
      28.032 
   28.036108 
   28.039166 
   28.040898 
   28.041261 
   28.040328 
   28.038349 
   28.035536 
    28.03212 
   28.028149 
   28.023767 
   28.019058 
   28.014418 
   28.009863 
   28.005683 
    28.00184 
   27.998417 
   27.995529 
    27.99328 
   27.991518 
   27.990267 
   27.989442 
   27.988959 
   27.988972 
   27.989551 
   27.990624 
   27.992361 
   27.994804 
   27.998045 
   28.001879 
   28.006283 
   28.011109 
   28.016367 
   28.021795 
   28.027153 
   28.032274 
   28.036961 
   28.040873 
   28.043991 
   28.046002 
   28.046644 
   28.045848 
   28.043616 
   28.040209 
   28.035888 
   28.030794 
   28.025402 
   28.020043 
   28.014978 
   28.010173 
   28.005695 
   28.001712 
   27.998152 
   27.994968 
   27.992215 
   27.989927 
   27.988117 
   27.986878 
   27.986426 
   27.986831 
   27.988116 
   27.990142 
   27.992951 
   27.996447 
   28.000523 
   28.005215 
   28.010374 
   28.015936 
   28.021671 
   28.027254 
   28.032443 
   28.036936 
   28.040489 
   28.042856 
   28.043877 
   28.043578 
    28.04197 
   28.039362 
   28.035993 
   28.031972 
   28.027682 
    28.02332 
   28.018993 
   28.014673 
   28.010622 
   28.007016 
   28.003667 
   28.000777 
   27.998236 
   27.996435 
   27.995365 
   27.995106 
   27.995635 
   27.996869 
   27.998918 
   28.001718 
   28.005171 
   28.009097 
   28.013396 
   28.017907 
   28.022467 
   28.026963 
   28.031116 
   28.034782 
   28.037939 
   28.040358 
   28.042068 
   28.042884 
   28.042632 
   28.041391 
   28.039093 
   28.035852 
   28.031767 
   28.027031 
   28.021988 
    28.01682 
   28.011686 
   28.006763 
   28.002128 
   27.997968 
   27.994245 
   27.991172 
   27.988866 
   27.987513 
   27.987127 
   27.987615 
   27.989111 
   27.991477 
   27.994623 
    27.99826 
   28.002267 
   28.006391 
   28.010478 
    28.01442 
   28.017854 
   28.020823 
   28.023247 
   28.025174 
   28.026663 
   28.027933 
   28.029049 
   28.030135 
   28.031019 
   28.031647 
   28.031714 
   28.031178 
   28.029747 
   28.027492 
   28.024508 
   28.021006 
   28.017214 
   28.013407 
   28.009757 
   28.006491 
   28.003813 
   28.001915 
   28.000806 
   28.000554 
   28.001227 
   28.002693 
   28.004785 
    28.00751 
    28.01046 
   28.013428 
   28.016495 
   28.019301 
   28.021799 
   28.023799 
   28.025303 
   28.026264 
   28.026725 
   28.026809 
    28.02673 
   28.026543 
   28.026364 
   28.026273 
   28.026102 
   28.025669 
   28.025005 
   28.023717 
   28.021894 
   28.019601 
   28.016857 
   28.013854 
   28.010907 
   28.008155 
   28.005904 
   28.004229 
   28.003349 
   28.003196 
   28.003971 
   28.005571 
   28.007772 
   28.010638 
   28.013817 
   28.017035 
   28.020064 
   28.022733 
   28.024843 
   28.026356 
   28.027136 
   28.027385 
   28.027089 
   28.026574 
    28.02595 
   28.025448 
   28.025093 
   28.024742 
   28.024689 
   28.024757 
   28.024841 
   28.024694 
   28.024063 
   28.022858 
   28.021066 
   28.018669 
   28.015953 
   28.013154 
   28.010644 
   28.008773 
   28.007411 
   28.006704 
   28.006704 
   28.007387 
   28.008665 
   28.010385 
   28.012187 
   28.013916 
   28.015342 
   28.016354 
   28.016911 
   28.016949 
   28.016539 
   28.015796 
   28.014884 
   28.014055 
   28.013411 
   28.012983 
    28.01284 
     28.0129 
    28.01309 
   28.013433 
   28.013821 
   28.013979 
   28.013965 
    28.01387 
   28.013628 
   28.013242 
   28.012595 
   28.011477 
   28.010104 
   28.008648 
   28.007387 
   28.006438 
   28.005974 
   28.005922 
    28.00632 
    28.00701 
   28.007827 
     28.0085 
   28.008962 
   28.009047 
   28.008572 
   28.007755 
   28.006511 
   28.005146 
   28.003896 
    28.00293 
   28.002432 
   28.002417 
   28.002884 
   28.003803 
   28.005019 
   28.006489 
    28.00805 
   28.009559 
   28.010917 
   28.012137 
   28.013326 
   28.014343 
   28.015513 
   28.016653 
   28.017796 
   28.018925 
   28.020117 
   28.021208 
    28.02224 
   28.023296 
   28.024444 
   28.025721 
   28.026903 
   28.027748 
   28.028183 
   28.028272 
   28.027828 
   28.026892 
   28.025581 
   28.023963 
   28.022234 
   28.020588 
   28.019173 
   28.018173 
   28.017477 
   28.017042 
   28.016853 
   28.016963 
   28.017364 
   28.017899 
   28.018659 
   28.019467 
   28.020476 
   28.021658 
   28.023017 
   28.024567 
   28.026184 
   28.027827 
   28.029394 
   28.030746 
   28.031872 
   28.032691 
   28.033322 
   28.033525 
   28.033407 
   28.032717 
   28.031413 
   28.029437 
   28.026929 
   28.024015 
   28.020718 
   28.017301 
   28.013969 
   28.010959 
   28.008527 
   28.006662 
   28.005361 
   28.004733 
   28.004547 
   28.004696 
   28.005047 
   28.005605 
   28.006202 
   28.006807 
   28.007417 
   28.008063 
   28.008971 
    28.01038 
    28.01217 
   28.014332 
   28.016721 
   28.019254 
   28.021737 
   28.023972 
   28.025792 
   28.027083 
   28.027772 
   28.027815 
   28.027077 
   28.025665 
   28.023504 
   28.020693 
     28.0174 
   28.013787 
   28.010178 
   28.006867 
   28.004013 
   28.001887 
   28.000441 
   27.999828 
   28.000003 
   28.000892 
   28.002395 
   28.004362 
   28.006559 
   28.008831 
   28.011058 
   28.013011 
   28.014857 
    28.01675 
   28.018795 
   28.020961 
    28.02322 
   28.025573 
   28.027943 
   28.030028 
   28.031709 
    28.03268 
   28.033065 
   28.032873 
   28.032078 
   28.030692 
   28.028739 
   28.026353 
   28.023602 
   28.020762 
   28.017882 
   28.015135 
   28.012853 
    28.01111 
    28.00992 
    28.00937 
   28.009556 
   28.010463 
   28.011946 
   28.013919 
     28.0162 
   28.018697 
   28.021202 
   28.023734 
   28.026199 
   28.028451 
   28.030568 
    28.03248 
    28.03406 
   28.035218 
   28.035873 
   28.035822 
   28.035032 
   28.033294 
   28.030774 
   28.027729 
   28.024389 
   28.020832 
   28.017316 
   28.013778 
   28.010317 
   28.007204 
   28.004367 
   28.001868 
   27.999778 
   27.998347 
   27.997612 
   27.997654 
   27.998398 
   27.999835 
   28.001927 
   28.004443 
   28.007179 
   28.010237 
   28.013424 
   28.016506 
    28.01956 
   28.022492 
    28.02514 
   28.027614 
   28.030071 
   28.032343 
    28.03431 
   28.035879 
   28.036981 
   28.037375 
   28.037078 
   28.036062 
   28.033982 
   28.031044 
    28.02728 
   28.022968 
   28.018429 
   28.013834 
   28.009533 
   28.005621 
   28.002251 
   27.999585 
   27.997826 
   27.996966 
   27.997058 
   27.997917 
   27.999546 
   28.001941 
   28.004997 
   28.008468 
   28.012123 
   28.015707 
   28.019186 
   28.022436 
    28.02544 
   28.028236 
   28.030777 
     28.0332 
   28.035426 
   28.037508 
   28.039263 
   28.040616 
   28.041503 
   28.041665 
   28.040878 
   28.039224 
   28.036685 
   28.033493 
   28.029806 
   28.025922 
   28.021952 
   28.018334 
    28.01535 
   28.012961 
   28.011343 
   28.010425 
    28.01024 
   28.010784 
   28.012111 
   28.014059 
    28.01637 
   28.018865 
    28.02137 
   28.023834 
   28.026024 
   28.027844 
   28.029259 
   28.030291 
   28.030964 
   28.031439 
   28.031978 
   28.032551 
   28.033106 
   28.033671 
   28.034188 
   28.034461 
    28.03425 
    28.03345 
   28.032031 
   28.030074 
   28.027557 
   28.024765 
   28.021916 
    28.01918 
    28.01679 
   28.014976 
   28.013678 
   28.012901 
   28.012711 
   28.013145 
   28.014064 
   28.015475 
   28.017237 
   28.019059 
   28.020837 
   28.022472 
   28.023879 
   28.025086 
   28.025964 
   28.026514 
   28.026863 
   28.026984 
   28.027098 
   28.027314 
   28.027668 
    28.02819 
   28.028723 
   28.029292 
   28.029514 
   28.029377 
   28.028675 
   28.027429 
   28.025673 
   28.023598 
   28.021397 
   28.019416 
    28.01771 
   28.016427 
   28.015544 
   28.015187 
     28.0154 
   28.016023 
   28.016856 
   28.017705 
   28.018591 
   28.019356 
   28.019966 
    28.02032 
   28.020476 
   28.020405 
    28.01991 
   28.019259 
   28.018584 
   28.017985 
   28.017602 
    28.01762 
   28.017987 
    28.01869 
   28.019774 
   28.021211 
   28.022817 
   28.024387 
   28.025733 
   28.026667 
   28.027052 
   28.026833 
   28.026111 
   28.025185 
   28.024188 
   28.023208 
   28.022299 
   28.021501 
   28.020791 
   28.020083 
   28.019426 
   28.018761 
   28.018029 
   28.017145 
   28.016126 
   28.014945 
   28.013714 
   28.012322 
     28.0109 
   28.009423 
    28.00789 
   28.006464 
    28.00528 
   28.004409 
   28.004031 
   28.004307 
   28.005154 
   28.006602 
   28.008574 
   28.011015 
   28.013964 
   28.017277 
   28.020802 
   28.024248 
   28.027245 
   28.029681 
   28.031417 
   28.032484 
   28.032899 
   28.032763 
   28.032123 
   28.031111 
   28.029841 
   28.028326 
    28.02666 
   28.024828 
   28.022781 
   28.020588 
   28.018371 
   28.016118 
   28.013874 
   28.011689 
   28.009663 
   28.007979 
   28.006834 
   28.006206 
   28.006172 
   28.006608 
   28.007535 
   28.008776 
   28.010293 
   28.012254 
   28.014477 
   28.016912 
   28.019502 
   28.022317 
   28.025162 
   28.027895 
    28.03045 
   28.032635 
   28.034368 
   28.035573 
   28.036088 
    28.03601 
   28.035361 
   28.034298 
   28.032804 
   28.031005 
   28.028829 
   28.026307 
   28.023511 
   28.020544 
   28.017479 
   28.014569 
   28.011961 
   28.009686 
   28.008002 
   28.006923 
   28.006546 
   28.006832 
    28.00773 
   28.009273 
   28.011259 
   28.013682 
   28.016231 
   28.019035 
   28.022068 
   28.025168 
   28.028428 
   28.031671 
   28.034901 
   28.037868 
    28.04045 
   28.042498 
   28.044041 
   28.044954 
    28.04528 
   28.044947 
   28.044071 
   28.042647 
   28.040672 
   28.038353 
   28.035525 
   28.032465 
   28.029316 
     28.0263 
   28.023489 
   28.021157 
   28.019276 
   28.017759 
   28.016682 
    28.01603 
   28.015679 
   28.015456 
    28.01531 
   28.015273 
   28.015535 
   28.016163 
   28.017214 
    28.01884 
   28.020808 
   28.023036 
   28.025349 
   28.027619 
   28.029697 
    28.03134 
   28.032406 
   28.032809 
   28.032455 
   28.031517 
   28.030007 
   28.028062 
   28.026008 
   28.023945 
   28.021905 
    28.01986 
   28.017693 
   28.015472 
   28.013343 
   28.011476 
   28.010014 
   28.008974 
   28.008469 
   28.008493 
   28.009051 
   28.010105 
   28.011493 
   28.013048 
   28.014582 
   28.016083 
   28.017527 
   28.018965 
   28.020299 
   28.021654 
     28.0229 
   28.024048 
   28.024891 
   28.025349 
   28.025432 
   28.024976 
   28.024119 
   28.022701 
   28.021098 
   28.019333 
   28.017528 
   28.015912 
    28.01454 
    28.01359 
   28.013072 
   28.013022 
   28.013319 
   28.014016 
   28.014819 
   28.015666 
   28.016545 
   28.017477 
   28.018495 
   28.019706 
   28.021038 
   28.022473 
    28.02398 
   28.025406 
   28.026769 
   28.027867 
   28.028766 
   28.029467 
   28.029982 
   28.030384 
   28.030528 
   28.030486 
   28.030293 
   28.029864 
    28.02916 
   28.028192 
   28.026868 
   28.025037 
   28.022789 
   28.020327 
   28.017922 
    28.01562 
   28.013709 
   28.012134 
   28.010843 
   28.009974 
   28.009438 
    28.00928 
   28.009391 
    28.00986 
   28.010743 
   28.011964 
   28.013675 
   28.015845 
    28.01815 
   28.020568 
   28.022867 
   28.024864 
   28.026526 
   28.027717 
   28.028532 
   28.029046 
    28.02923 
   28.029189 
   28.029031 
   28.028973 
   28.029055 
   28.029197 
   28.029257 
   28.029179 
   28.028926 
    28.02838 
   28.027629 
   28.026774 
   28.025757 
   28.024694 
    28.02358 
   28.022435 
   28.021402 
   28.020431 
   28.019679 
   28.019113 
    28.01885 
   28.019062 
   28.019609 
   28.020568 
   28.021732 
   28.023124 
   28.024448 
   28.025502 
   28.026079 
   28.026147 
   28.025595 
   28.024606 
   28.023267 
   28.021713 
   28.020102 
   28.018702 
   28.017753 
   28.017057 
   28.016582 
   28.016269 
   28.016233 
   28.016204 
   28.016291 
   28.016397 
   28.016476 
   28.016446 
   28.016273 
   28.016043 
   28.015761 
   28.015529 
   28.015551 
   28.015783 
   28.016232 
   28.017115 
   28.018289 
   28.019841 
   28.021758 
   28.023724 
   28.025734 
     28.0277 
   28.029464 
   28.030917 
   28.031826 
   28.032246 
   28.032133 
   28.031366 
   28.030182 
   28.028808 
   28.027336 
    28.02583 
   28.024423 
   28.023211 
   28.022281 
   28.021576 
   28.021064 
   28.020699 
   28.020387 
   28.020078 
   28.019745 
   28.019351 
   28.018829 
   28.018274 
   28.017568 
   28.016823 
   28.016017 
   28.015433 
   28.015036 
   28.014824 
   28.014918 
   28.015255 
   28.015906 
    28.01663 
   28.017339 
   28.018047 
   28.018653 
   28.019069 
   28.019241 
    28.01911 
   28.018638 
   28.018023 
   28.017375 
   28.016738 
   28.016284 
   28.016013 
   28.015956 
   28.015995 
   28.016189 
   28.016536 
   28.017105 
   28.017687 
   28.018374 
   28.019058 
   28.019596 
    28.02014 
   28.020697 
   28.021095 
   28.021534 
    28.02202 
   28.022596 
   28.023267 
   28.023921 
   28.024576 
    28.02518 
   28.025689 
   28.026006 
   28.025894 
   28.025402 
    28.02446 
   28.022989 
   28.021081 
   28.018945 
   28.016871 
   28.014972 
   28.013287 
   28.011978 
   28.011248 
   28.010879 
   28.010902 
    28.01131 
   28.012034 
   28.013031 
   28.014244 
   28.015447 
   28.016615 
    28.01767 
   28.018668 
   28.019504 
    28.02017 
   28.020734 
   28.021122 
   28.021516 
   28.021968 
   28.022585 
   28.023352 
   28.024235 
   28.025211 
   28.026236 
   28.027194 
   28.028035 
   28.028496 
   28.028473 
   28.028006 
   28.027156 
   28.026067 
   28.024887 
   28.023605 
   28.022344 
    28.02124 
   28.020423 
    28.01976 
     28.0193 
   28.018961 
    28.01881 
   28.018795 
   28.019023 
    28.01948 
    28.02021 
   28.021338 
   28.022587 
   28.023897 
   28.025054 
   28.026045 
   28.026871 
   28.027433 
    28.02794 
   28.028251 
   28.028438 
   28.028551 
   28.028445 
   28.028086 
   28.027204 
   28.025917 
   28.024261 
   28.022298 
   28.020051 
   28.017715 
   28.015391 
   28.013445 
   28.011863 
   28.010807 
   28.010182 
   28.010104 
   28.010647 
   28.011691 
   28.013176 
   28.014931 
    28.01671 
   28.018614 
    28.02056 
   28.022495 
   28.024402 
   28.026311 
   28.028194 
   28.030002 
   28.031685 
   28.032931 
   28.033702 
   28.033996 
   28.033786 
    28.03327 
   28.032429 
   28.031551 
   28.030545 
    28.02953 
   28.028406 
   28.027106 
   28.025685 
    28.02413 
   28.022571 
   28.021103 
   28.019839 
   28.018902 
   28.018293 
   28.018002 
   28.018077 
   28.018459 
   28.019181 
   28.020089 
    28.02102 
   28.021982 
   28.022902 
   28.023774 
   28.024689 
    28.02566 
   28.026849 
   28.028232 
   28.029742 
   28.031324 
   28.033004 
   28.034667 
   28.036067 
   28.037049 
   28.037584 
   28.037536 
   28.036873 
   28.035727 
    28.03434 
   28.032824 
   28.031245 
   28.029612 
   28.028141 
   28.026881 
   28.025873 
   28.025255 
   28.024838 
   28.024636 
   28.024614 
   28.024661 
   28.024675 
   28.024544 
   28.024148 
    28.02359 
   28.022818 
   28.021878 
   28.020978 
   28.020144 
     28.0195 
   28.019165 
   28.019096 
   28.019328 
   28.019884 
   28.020704 
   28.021776 
    28.02308 
   28.024499 
   28.025936 
    28.02724 
   28.028227 
   28.028987 
   28.029464 
   28.029644 
   28.029672 
   28.029623 
   28.029576 
   28.029469 
   28.029583 
   28.029896 
   28.030361 
   28.030897 
   28.031305 
   28.031566 
   28.031501 
   28.031138 
   28.030452 
   28.029281 
    28.02779 
   28.026082 
   28.024327 
   28.022617 
   28.021112 
   28.020049 
   28.019487 
   28.019507 
   28.020043 
   28.021216 
   28.022831 
   28.024921 
   28.027296 
   28.030016 
   28.032742 
    28.03531 
   28.037523 
   28.039211 
   28.040511 
   28.041407 
   28.041998 
   28.042272 
   28.042365 
   28.042412 
   28.042451 
   28.042374 
   28.041967 
   28.041303 
   28.040122 
   28.038546 
   28.036523 
   28.034145 
   28.031553 
   28.028825 
   28.026181 
   28.023825 
   28.021856 
   28.020489 
   28.019724 
   28.019574 
   28.020027 
   28.021134 
   28.022705 
   28.024814 
   28.027258 
   28.030101 
    28.03318 
   28.036256 
   28.039315 
   28.042071 
   28.044482 
   28.046392 
   28.047696 
   28.048382 
   28.048508 
   28.048187 
    28.04749 
   28.046575 
   28.045454 
   28.043955 
   28.041966 
   28.039549 
   28.036883 
   28.033966 
   28.030814 
   28.027611 
   28.024588 
   28.021769 
   28.019248 
   28.017318 
    28.01587 
   28.015056 
   28.014786 
   28.015158 
   28.016162 
   28.017791 
   28.019794 
   28.022124 
   28.024643 
   28.027291 
   28.029909 
   28.032282 
   28.034263 
   28.035745 
   28.036932 
   28.037797 
   28.038217 
   28.038297 
   28.038084 
   28.037719 
   28.037073 
   28.036328 
   28.035369 
   28.034123 
   28.032712 
   28.030999 
   28.029084 
   28.027136 
   28.025223 
   28.023499 
   28.022169 
   28.021285 
   28.020925 
    28.02103 
   28.021729 
   28.022857 
   28.024338 
   28.025982 
   28.027787 
   28.029739 
   28.031737 
    28.03375 
   28.035558 
   28.037112 
   28.038321 
   28.039255 
   28.039768 
   28.039849 
   28.039578 
   28.039164 
   28.038577 
     28.0378 
   28.036885 
   28.035956 
   28.035089 
   28.034269 
   28.033516 
   28.032904 
   28.032415 
   28.031985 
   28.031686 
   28.031583 
   28.031736 
   28.032224 
   28.032902 
   28.033806 
   28.034845 
   28.036141 
   28.037538 
   28.039042 
   28.040655 
   28.042329 
   28.043764 
   28.044975 
   28.045934 
   28.046229 
   28.045935 
   28.045204 
   28.044075 
   28.042506 
   28.040651 
   28.038737 
   28.036878 
   28.035077 
    28.03344 
   28.032186 
   28.031258 
   28.030688 
   28.030358 
   28.030125 
   28.029882 
   28.029847 
   28.030007 
   28.030442 
   28.031256 
   28.032264 
    28.03352 
    28.03504 
   28.036709 
   28.038566 
    28.04029 
   28.041907 
   28.043332 
   28.044507 
    28.04524 
   28.045685 
   28.045687 
   28.045172 
   28.044144 
   28.042722 
   28.040824 
    28.03862 
   28.036309 
   28.034163 
   28.032161 
   28.030396 
    28.02894 
   28.027879 
   28.027273 
   28.026892 
    28.02675 
   28.026966 
   28.027369 
   28.027822 
   28.028407 
   28.029255 
   28.030123 
   28.030976 
   28.031979 
   28.033094 
   28.034235 
   28.035271 
   28.036193 
   28.036975 
   28.037545 
    28.03766 
   28.037513 
   28.037039 
   28.036201 
   28.035052 
   28.033608 
   28.031741 
    28.02966 
   28.027402 
   28.025202 
   28.023189 
   28.021474 
   28.020223 
   28.019447 
   28.019326 
    28.01975 
   28.020635 
   28.021684 
   28.023089 
   28.024619 
   28.026294 
   28.027982 
   28.029671 
   28.031248 
   28.032741 
   28.034218 
   28.035659 
   28.036893 
   28.037938 
   28.038747 
   28.039258 
   28.039434 
   28.039177 
   28.038483 
   28.037271 
   28.035563 
   28.033531 
   28.031186 
    28.02857 
   28.025818 
   28.023069 
   28.020428 
   28.018105 
   28.016174 
    28.01483 
   28.014011 
    28.01384 
   28.014295 
   28.015468 
   28.017128 
    28.01905 
   28.021313 
   28.023708 
   28.026077 
    28.02833 
   28.030399 
   28.032225 
   28.033749 
   28.035014 
   28.035864 
   28.036436 
   28.036499 
    28.03618 
   28.035603 
   28.034907 
   28.034036 
   28.033145 
   28.032321 
   28.031286 
   28.030224 
   28.029099 
   28.027799 
   28.026656 
   28.025585 
    28.02485 
   28.024388 
   28.024406 
   28.024988 
   28.026211 
    28.02805 
   28.030394 
   28.033088 
   28.036008 
   28.038908 
   28.041772 
   28.044377 
   28.046646 
   28.048578 
   28.049982 
    28.05076 
   28.050822 
   28.050275 
   28.049075 
   28.047319 
   28.045034 
   28.042474 
   28.039615 
   28.036632 
   28.033645 
   28.030746 
   28.027866 
    28.02511 
   28.022737 
   28.020817 
   28.019485 
   28.018713 
   28.018524 
   28.018978 
   28.020167 
   28.021971 
   28.024387 
   28.027312 
   28.030609 
   28.034205 
   28.037847 
   28.041381 
   28.044606 
   28.047212 
   28.048987 
   28.049885 
    28.04987 
   28.048884 
   28.047055 
   28.044582 
   28.041509 
   28.037916 
   28.034104 
   28.030207 
    28.02647 
    28.02284 
   28.019389 
   28.016267 
   28.013662 
   28.011481 
   28.009872 
   28.008879 
   28.008411 
    28.00862 
   28.009527 
   28.011236 
   28.013674 
   28.016847 
   28.020638 
   28.025014 
    28.02971 
   28.034663 
    28.03969 
   28.044599 
   28.049047 
   28.052864 
   28.055792 
   28.057635 
    28.05841 
   28.058087 
   28.056533 
   28.054046 
   28.050749 
   28.046748 
   28.042335 
    28.03776 
   28.033173 
   28.028623 
   28.024279 
   28.020272 
   28.016792 
   28.013786 
   28.011384 
   28.009621 
   28.008454 
    28.00795 
   28.008249 
   28.009242 
   28.010953 
   28.013317 
   28.016279 
   28.019844 
   28.023918 
    28.02827 
   28.032628 
   28.036751 
   28.040519 
   28.043802 
   28.046451 
   28.048262 
   28.049177 
   28.049169 
   28.048344 
   28.046806 
   28.044628 
    28.04189 
   28.038736 
   28.035317 
    28.03176 
   28.028322 
   28.025187 
     28.0224 
     28.0201 
   28.018406 
   28.017202 
   28.016657 
   28.016783 
    28.01751 
   28.018974 
   28.021123 
   28.023734 
   28.026688 
   28.030069 
   28.033628 
   28.037334 
    28.04104 
   28.044618 
   28.047915 
   28.050905 
   28.053401 
   28.055162 
   28.056242 
   28.056563 
   28.056127 
   28.055012 
   28.053181 
   28.050697 
   28.047713 
   28.044295 
   28.040586 
   28.036842 
   28.033075 
   28.029587 
   28.026377 
   28.023489 
   28.021137 
   28.019247 
   28.017914 
   28.017249 
   28.017159 
    28.01758 
   28.018616 
   28.020224 
   28.022416 
   28.025109 
   28.028081 
   28.031286 
   28.034527 
   28.037725 
   28.040652 
   28.043352 
   28.045675 
   28.047513 
   28.048855 
   28.049574 
   28.049811 
   28.049608 
   28.049049 
   28.048119 
   28.046731 
   28.045061 
   28.043122 
   28.040902 
   28.038701 
   28.036435 
   28.034195 
   28.032121 
   28.030273 
   28.028637 
   28.027517 
   28.026858 
   28.026669 
   28.026995 
   28.027668 
    28.02878 
   28.030277 
    28.03199 
   28.033866 
   28.035993 
   28.038212 
   28.040373 
   28.042351 
    28.04409 
   28.045492 
   28.046393 
    28.04684 
   28.046699 
   28.046106 
   28.045122 
    28.04364 
   28.041884 
   28.039825 
    28.03749 
   28.034894 
   28.032121 
   28.029495 
   28.027163 
   28.025006 
   28.023248 
   28.021769 
   28.020696 
   28.020146 
       28.02 
   28.020265 
   28.020976 
   28.022139 
   28.023793 
   28.025534 
   28.027411 
   28.029597 
    28.03184 
   28.034078 
   28.036271 
   28.038418 
   28.040298 
   28.041909 
   28.043261 
   28.044184 
   28.044748 
   28.044794 
   28.044484 
   28.043757 
   28.042661 
   28.041293 
   28.039781 
   28.038205 
   28.036668 
   28.035104 
   28.033835 
   28.032749 
   28.031825 
   28.031066 
    28.03064 
    28.03048 
   28.030637 
   28.031112 
   28.031849 
   28.032754 
   28.033821 
   28.035112 
   28.036256 
   28.037418 
   28.038478 
   28.039537 
   28.040339 
   28.041037 
   28.041545 
   28.041778 
   28.041667 
   28.041176 
   28.040312 
   28.038972 
   28.037332 
   28.035496 
   28.033635 
   28.031844 
   28.030188 
   28.028788 
   28.027721 
   28.027138 
   28.026961 
   28.027249 
   28.027999 
     28.0292 
   28.030892 
     28.0329 
    28.03504 
   28.037329 
   28.039626 
   28.041891 
   28.044096 
   28.046089 
   28.047697 
   28.049018 
   28.049788 
   28.049951 
   28.049645 
   28.048842 
   28.047612 
   28.046055 
   28.044102 
   28.041811 
    28.03931 
   28.036734 
   28.034041 
   28.031334 
   28.028773 
   28.026667 
   28.024944 
   28.023677 
    28.02295 
   28.022777 
   28.023211 
   28.024074 
     28.0254 
   28.027096 
   28.028988 
   28.031018 
   28.033162 
   28.035185 
   28.037169 
   28.039035 
   28.040769 
   28.042258 
   28.043322 
   28.044015 
   28.044254 
   28.044009 
   28.043398 
   28.042495 
   28.041254 
   28.039618 
   28.037768 
   28.035716 
   28.033472 
   28.031303 
   28.029179 
   28.027176 
   28.025328 
   28.023673 
   28.022282 
   28.021112 
   28.020201 
   28.019626 
   28.019373 
   28.019498 
   28.019861 
   28.020474 
   28.021283 
   28.022242 
    28.02341 
   28.024647 
   28.026025 
   28.027496 
   28.028902 
   28.030278 
   28.031525 
    28.03267 
   28.033755 
   28.034657 
   28.035454 
   28.036142 
   28.036791 
    28.03729 
   28.037644 
   28.037885 
   28.037987 
    28.03796 
     28.0378 
   28.037529 
   28.037224 
    28.03685 
   28.036383 
   28.035797 
   28.035062 
   28.034204 
   28.033155 
   28.032099 
   28.031008 
   28.029903 
   28.028828 
   28.027909 
   28.027218 
   28.026747 
   28.026441 
   28.026262 
    28.02617 
   28.026186 
   28.026218 
   28.026266 
   28.026383 
   28.026445 
   28.026446 
   28.026469 
   28.026518 
   28.026609 
   28.026615 
     28.0267 
   28.026758 
   28.026911 
    28.02714 
   28.027271 
   28.027461 
    28.02771 
   28.027718 
   28.027665 
   28.027542 
   28.027349 
   28.027015 
    28.02645 
   28.025824 
   28.025162 
   28.024583 
   28.024023 
   28.023675 
   28.023457 
   28.023439 
   28.023491 
   28.023765 
   28.024276 
   28.024859 
    28.02551 
   28.026263 
   28.026826 
   28.027289 
   28.027632 
   28.028038 
    28.02853 
   28.029195 
   28.029991 
   28.030932 
   28.032027 
   28.033154 
   28.034376 
   28.035757 
   28.037293 
   28.038931 
   28.040525 
   28.042084 
   28.043538 
    28.04487 
   28.046103 
   28.047031 
   28.047815 
    28.04831 
   28.048544 
    28.04853 
   28.048317 
    28.04782 
   28.047084 
   28.046056 
   28.044777 
   28.043182 
   28.041301 
   28.039179 
   28.036862 
   28.034461 
   28.032004 
   28.029513 
   28.027337 
   28.025482 
    28.02394 
   28.022708 
   28.021776 
   28.021318 
   28.021298 
   28.021658 
    28.02236 
   28.023424 
   28.024715 
   28.026147 
   28.027649 
   28.029162 
    28.03055 
   28.031791 
    28.03281 
    28.03372 
   28.034558 
   28.035106 
   28.035557 
   28.035873 
   28.036074 
    28.03595 
   28.035561 
   28.034953 
   28.034185 
   28.033213 
   28.032137 
   28.030974 
    28.02976 
   28.028622 
   28.027727 
   28.026959 
   28.026476 
   28.026354 
   28.026466 
   28.026919 
   28.027466 
    28.02813 
   28.028968 
   28.029861 
   28.030805 
   28.031715 
   28.032419 
   28.033039 
   28.033485 
   28.033795 
   28.033979 
   28.033972 
   28.033773 
   28.033336 
   28.032671 
   28.031617 
   28.030266 
   28.028634 
     28.0268 
   28.024981 
   28.023097 
   28.021235 
    28.01952 
   28.018087 
   28.017082 
   28.016505 
   28.016304 
   28.016524 
   28.017256 
   28.018315 
   28.019673 
   28.021321 
   28.023101 
   28.024915 
   28.026716 
    28.02846 
   28.030171 
    28.03176 
   28.033348 
   28.034799 
   28.036113 
    28.03723 
   28.038172 
    28.03871 
   28.039038 
   28.039029 
   28.038735 
   28.038028 
   28.037023 
   28.035708 
   28.034258 
   28.032732 
   28.031251 
    28.02983 
   28.028485 
   28.027455 
   28.026711 
   28.026383 
   28.026475 
   28.026847 
   28.027552 
   28.028554 
   28.029603 
   28.030745 
   28.031909 
    28.03304 
   28.034281 
   28.035515 
   28.036676 
    28.03783 
    28.03897 
   28.040043 
   28.041053 
   28.041804 
   28.042487 
    28.04324 
   28.043823 
   28.044117 
   28.044126 
   28.043755 
   28.042994 
    28.04192 
   28.040686 
    28.03914 
   28.037596 
   28.036141 
   28.034879 
   28.033737 
   28.032868 
   28.032292 
   28.031943 
   28.031871 
    28.03191 
   28.032103 
   28.032371 
   28.032741 
   28.033142 
   28.033577 
   28.034071 
   28.034628 
   28.035186 
    28.03581 
   28.036397 
   28.037059 
   28.037695 
   28.038185 
   28.038561 
   28.038742 
   28.038662 
   28.038385 
   28.037882 
   28.037137 
   28.036149 
   28.034925 
    28.03363 
    28.03235 
   28.031196 
   28.030132 
   28.029306 
   28.028596 
    28.02801 
   28.027659 
   28.027452 
   28.027322 
   28.027227 
   28.027313 
   28.027483 
   28.027739 
    28.02817 
   28.028686 
    28.02935 
    28.03019 
   28.031244 
    28.03249 
   28.033825 
   28.035268 
   28.036682 
   28.038175 
   28.039559 
   28.040744 
   28.041534 
   28.041941 
   28.042087 
   28.041907 
    28.04145 
   28.040732 
   28.039834 
[...]
   28.044659 
   28.044819 
   28.044723 
    28.04426 
   28.043586 
   28.042784 
   28.041808 
   28.040579 
   28.039174 
   28.037647 
   28.036092 
   28.034595 
    28.03303 
   28.031558 
   28.030261 
     28.0292 
   28.028452 
      28.028 
   28.027775 
   28.027819 
   28.028173 
   28.028802 
   28.029728 
   28.030917 
   28.032178 
   28.033495 
   28.034811 
   28.036095 
   28.037242 
   28.038275 
   28.039133 
   28.039762 
    28.04015 
   28.040342 
   28.040185 
   28.039931 
    28.03953 
   28.039004 
    28.03838 
   28.037622 
   28.036726 
    28.03576 
    28.03484 
   28.033992 
   28.033123 
   28.032434 
   28.031767 
   28.031316 
   28.031156 
    28.03125 
   28.031552 
   28.032063 
   28.032759 
   28.033626 
   28.034761 
   28.035864 
   28.037083 
   28.038263 
   28.039246 
   28.040082 
   28.040783 
   28.041209 
    28.04147 
   28.041494 
   28.041334 
   28.041061 
   28.040567 
   28.039754 
   28.038905 
   28.037766 
   28.036528 
   28.035099 
   28.033683 
   28.032158 
   28.030555 
   28.029178 
   28.028054 
   28.027229 
   28.026732 
   28.026636 
   28.026958 
   28.027702 
   28.028845 
   28.030258 
    28.03182 
   28.033576 
   28.035484 
   28.037355 
   28.039077 
   28.040593 
   28.041962 
   28.043107 
   28.043945 
   28.044566 
   28.044832 
   28.044838 
   28.044482 
   28.043865 
   28.043007 
   28.041997 
   28.040935 
   28.039814 
   28.038717 
   28.037474 
   28.036178 
   28.034978 
   28.033756 
   28.032603 
   28.031688 
   28.031066 
   28.030719 
   28.030627 
   28.030791 
   28.031231 
   28.031863 
   28.032706 
   28.033742 
    28.03495 
   28.036392 
   28.037915 
   28.039442 
   28.040763 
   28.041845 
   28.042775 
   28.043569 
   28.044158 
   28.044455 
   28.044549 
   28.044299 
   28.043896 
    28.04329 
   28.042588 
   28.041766 
   28.040943 
   28.040115 
   28.039363 
   28.038651 
   28.037804 
   28.036865 
   28.035919 
   28.035099 
   28.034342 
   28.033812 
   28.033485 
   28.033515 
   28.033852 
   28.034392 
   28.035219 
    28.03624 
   28.037347 
   28.038487 
   28.039622 
   28.040727 
   28.041748 
   28.042541 
   28.043196 
   28.043669 
   28.043964 
   28.044066 
   28.044091 
   28.043997 
   28.043782 
   28.043681 
   28.043532 
    28.04334 
   28.043217 
   28.043075 
   28.043008 
   28.043047 
   28.043113 
   28.043216 
   28.043309 
   28.043505 
    28.04381 
   28.044307 
   28.045025 
   28.045818 
    28.04657 
   28.047384 
   28.048424 
   28.049304 
   28.050058 
   28.050577 
   28.050835 
   28.050935 
   28.050768 
   28.050384 
   28.049731 
   28.048846 
   28.047867 
   28.046785 
   28.045631 
   28.044435 
   28.043272 
   28.042197 
   28.041309 
   28.040629 
   28.039939 
   28.039269 
   28.038703 
   28.038191 
    28.03766 
   28.037259 
   28.037137 
   28.037263 
   28.037627 
   28.038124 
   28.038898 
   28.039887 
   28.041075 
     28.0422 
   28.043076 
   28.043772 
   28.044312 
   28.044362 
   28.044023 
   28.043424 
   28.042543 
    28.04152 
    28.04032 
   28.038922 
   28.037553 
   28.036321 
   28.035208 
   28.034231 
   28.033437 
   28.032952 
   28.032672 
   28.032725 
   28.033012 
   28.033331 
    28.03379 
   28.034265 
   28.034701 
   28.035173 
   28.035681 
   28.036199 
     28.0366 
   28.037005 
   28.037328 
   28.037595 
   28.037661 
   28.037632 
   28.037307 
   28.036702 
   28.035672 
   28.034376 
   28.032891 
   28.031142 
   28.029382 
    28.02765 
   28.026114 
   28.024899 
   28.024004 
   28.023508 
   28.023362 
   28.023649 
   28.024293 
   28.025363 
   28.026874 
   28.028717 
   28.030705 
   28.032746 
   28.034758 
   28.036823 
   28.038741 
   28.040478 
   28.041986 
   28.043378 
   28.044394 
    28.04514 
   28.045586 
   28.045778 
   28.045652 
   28.045087 
    28.04419 
   28.042906 
   28.041315 
   28.039491 
   28.037569 
   28.035642 
   28.033861 
   28.032229 
    28.03081 
   28.029757 
   28.029159 
     28.0289 
   28.029141 
   28.029888 
   28.031071 
   28.032571 
   28.034314 
    28.03606 
   28.037777 
   28.039346 
   28.040787 
    28.04207 
   28.043107 
    28.04395 
   28.044631 
   28.045218 
   28.045595 
   28.045858 
   28.045867 
   28.045744 
   28.045378 
    28.04494 
   28.044313 
   28.043534 
   28.042562 
   28.041553 
   28.040329 
   28.039036 
   28.037849 
    28.03681 
   28.036141 
   28.035648 
   28.035345 
   28.035271 
   28.035427 
   28.035839 
   28.036476 
   28.037271 
   28.038181 
   28.039085 
       28.04 
   28.040789 
   28.041381 
   28.041787 
   28.042024 
   28.042113 
    28.04204 
   28.041816 
    28.04136 
    28.04091 
   28.040479 
   28.039872 
   28.039086 
   28.038225 
   28.037262 
   28.036399 
   28.035522 
   28.034564 
   28.033802 
   28.033126 
   28.032618 
   28.032363 
   28.032468 
   28.032885 
   28.033512 
   28.034399 
   28.035514 
   28.036853 
   28.038401 
   28.039871 
   28.041394 
   28.042919 
    28.04422 
    28.04541 
   28.046383 
   28.047015 
   28.047412 
   28.047673 
   28.047774 
   28.047845 
   28.047796 
   28.047694 
   28.047518 
   28.047338 
   28.047035 
    28.04654 
   28.045978 
   28.045341 
   28.044612 
     28.0438 
   28.042966 
   28.042053 
   28.041147 
   28.040314 
   28.039688 
   28.039186 
   28.038748 
   28.038512 
   28.038233 
   28.037904 
   28.037643 
   28.037378 
   28.037114 
   28.036765 
   28.036419 
   28.036138 
   28.035809 
   28.035422 
   28.035079 
   28.034728 
   28.034364 
   28.034232 
   28.034076 
   28.033965 
   28.033854 
   28.033884 
   28.033911 
   28.033796 
    28.03369 
   28.033572 
   28.033486 
   28.033463 
   28.033636 
   28.033818 
   28.034188 
   28.034666 
   28.035344 
   28.036066 
   28.036842 
   28.037741 
   28.038614 
   28.039399 
   28.040109 
   28.040686 
   28.041072 
   28.041361 
   28.041491 
   28.041581 
   28.041747 
   28.041936 
    28.04214 
   28.042262 
   28.042321 
    28.04239 
   28.042518 
   28.042562 
   28.042549 
   28.042374 
   28.042043 
   28.041639 
   28.041049 
   28.040372 
     28.0397 
   28.039056 
   28.038413 
    28.03793 
   28.037614 
   28.037325 
   28.037132 
   28.037142 
     28.0372 
   28.037352 
   28.037644 
   28.037952 
   28.038332 
   28.038671 
   28.038951 
   28.039165 
   28.039401 
   28.039493 
   28.039605 
   28.039679 
   28.039771 
   28.039955 
   28.040207 
   28.040479 
   28.040548 
   28.040527 
   28.040416 
    28.04001 
   28.039371 
   28.038716 
   28.037941 
   28.037152 
   28.036429 
    28.03577 
   28.035109 
   28.034613 
    28.03436 
   28.034206 
   28.034413 
    28.03477 
   28.035344 
   28.036097 
   28.036947 
    28.03786 
   28.038796 
   28.039751 
   28.040691 
   28.041494 
   28.042149 
   28.042813 
    28.04345 
   28.044038 
   28.044655 
   28.045031 
   28.045371 
   28.045616 
   28.045635 
   28.045352 
   28.044842 
   28.044107 
   28.043222 
    28.04208 
   28.040788 
   28.039515 
   28.038359 
   28.037275 
   28.036296 
   28.035302 
   28.034499 
   28.033916 
   28.033504 
   28.033205 
   28.033099 
   28.033191 
   28.033353 
   28.033631 
    28.03401 
   28.034507 
   28.035013 
   28.035687 
   28.036325 
   28.037033 
   28.037682 
   28.038185 
   28.038581 
   28.038943 
   28.039198 
   28.039189 
   28.038913 
   28.038478 
   28.037784 
   28.036919 
   28.035879 
   28.034601 
   28.033264 
   28.031824 
   28.030477 
   28.029455 
   28.028745 
   28.028308 
   28.028219 
   28.028473 
   28.029013 
   28.029899 
   28.031108 
   28.032719 
   28.034706 
   28.036945 
   28.039298 
   28.041639 
   28.043963 
   28.046148 
   28.048158 
   28.049962 
   28.051475 
   28.052566 
   28.053217 
   28.053543 
   28.053549 
    28.05305 
    28.05206 
   28.050613 
   28.048808 
    28.04677 
    28.04451 
   28.042326 
   28.040216 
   28.038148 
   28.036328 
   28.034683 
   28.033342 
   28.032272 
   28.031522 
   28.031196 
   28.031178 
   28.031584 
   28.032204 
   28.033206 
   28.034363 
   28.035658 
   28.037113 
   28.038736 
   28.040408 
    28.04197 
   28.043391 
   28.044709 
   28.045877 
    28.04675 
   28.047349 
   28.047801 
   28.047817 
   28.047322 
   28.046504 
   28.045297 
    28.04371 
   28.041873 
   28.039898 
   28.037918 
   28.036028 
   28.034393 
   28.033021 
   28.031945 
   28.031054 
   28.030386 
   28.030043 
   28.030094 
   28.030517 
   28.031203 
   28.032159 
    28.03325 
   28.034548 
   28.035832 
   28.037071 
   28.038201 
   28.039365 
   28.040542 
   28.041514 
    28.04221 
   28.042801 
   28.043184 
    28.04341 
   28.043366 
   28.043113 
   28.042415 
   28.041558 
   28.040557 
    28.03941 
   28.038355 
   28.037343 
   28.036469 
   28.035762 
   28.035238 
   28.034878 
   28.034744 
   28.034653 
   28.034827 
   28.035096 
   28.035452 
   28.035775 
   28.036001 
   28.036298 
   28.036647 
   28.036928 
   28.037304 
   28.037647 
   28.037869 
   28.037888 
   28.037815 
   28.037578 
    28.03727 
   28.037022 
   28.036603 
   28.035988 
    28.03526 
   28.034329 
   28.033287 
   28.032363 
   28.031464 
   28.030628 
   28.030002 
   28.029618 
   28.029269 
   28.029089 
   28.029049 
   28.029201 
   28.029629 
   28.030311 
   28.031252 
   28.032386 
   28.033545 
   28.034749 
   28.035927 
   28.036917 
   28.037684 
   28.038274 
   28.038774 
   28.039215 
   28.039635 
   28.040059 
   28.040425 
   28.040742 
   28.041034 
   28.041227 
   28.041271 
   28.041128 
   28.040916 
   28.040586 
   28.040181 
   28.039671 
   28.039251 
   28.038803 
   28.038458 
    28.03807 
   28.037835 
   28.037678 
   28.037633 
   28.037664 
   28.037899 
   28.038427 
   28.039063 
   28.039827 
   28.040655 
   28.041437 
   28.042317 
   28.043167 
   28.043916 
   28.044631 
   28.045236 
   28.045703 
   28.046041 
   28.046184 
   28.046285 
   28.046227 
   28.046117 
   28.045888 
   28.045484 
   28.044902 
   28.044151 
   28.043232 
   28.042145 
   28.041002 
   28.039867 
   28.038747 
    28.03776 
   28.036774 
   28.036086 
   28.035738 
   28.035737 
   28.036084 
   28.036597 
   28.037309 
   28.038093 
   28.039052 
   28.040003 
   28.040853 
   28.041541 
   28.042069 
   28.042432 
   28.042472 
   28.042359 
   28.042088 
   28.041721 
   28.041324 
   28.040839 
   28.040259 
    28.03949 
   28.038713 
   28.037906 
   28.037029 
   28.036242 
   28.035411 
   28.034791 
   28.034186 
   28.033821 
   28.033601 
    28.03354 
   28.033655 
   28.034095 
   28.034713 
   28.035404 
   28.036252 
   28.037169 
   28.038097 
   28.039093 
   28.040062 
   28.040868 
   28.041314 
    28.04163 
   28.041717 
   28.041598 
   28.041359 
   28.040934 
   28.040466 
   28.039907 
   28.039267 
    28.03842 
   28.037386 
   28.036304 
   28.035154 
   28.034027 
   28.032865 
   28.031763 
   28.030874 
   28.030216 
   28.029646 
   28.029244 
   28.029021 
     28.0291 
   28.029566 
   28.030449 
   28.031585 
   28.032885 
   28.034288 
   28.035747 
   28.037181 
   28.038484 
   28.039561 
   28.040381 
    28.04105 
   28.041375 
    28.04137 
   28.041068 
   28.040455 
   28.039687 
   28.038818 
   28.037757 
   28.036729 
   28.035543 
    28.03421 
   28.032845 
   28.031506 
   28.030223 
   28.029171 
   28.028257 
   28.027586 
   28.027195 
   28.027194 
    28.02735 
   28.027771 
   28.028429 
   28.029341 
   28.030626 
   28.031968 
    28.03349 
   28.035166 
   28.036813 
   28.038396 
   28.039732 
   28.040694 
    28.04125 
   28.041329 
   28.040929 
   28.040093 
   28.039125 
   28.037984 
   28.036738 
   28.035371 
   28.034013 
    28.03271 
   28.031263 
   28.029854 
   28.028633 
   28.027557 
   28.026466 
   28.025607 
   28.024968 
   28.024579 
   28.024494 
   28.024906 
   28.025614 
   28.026534 
   28.027742 
   28.029109 
   28.030683 
   28.032448 
   28.034385 
   28.036429 
   28.038428 
   28.040433 
   28.042331 
   28.043943 
   28.045215 
   28.045997 
   28.046401 
   28.046376 
   28.046014 
   28.045368 
   28.044443 
   28.043287 
   28.041935 
   28.040416 
   28.038702 
   28.037035 
   28.035301 
   28.033577 
   28.032023 
   28.030633 
   28.029629 
   28.029098 
   28.028931 
   28.029176 
   28.029709 
   28.030558 
   28.031654 
   28.032898 
   28.034269 
   28.035805 
   28.037399 
   28.039006 
   28.040592 
   28.041994 
   28.043078 
   28.043815 
   28.044207 
   28.044153 
   28.043834 
   28.043196 
   28.042393 
   28.041488 
   28.040366 
   28.039129 
    28.03793 
   28.036735 
    28.03551 
   28.034398 
   28.033424 
   28.032539 
   28.031876 
   28.031309 
   28.030878 
   28.030685 
   28.030779 
   28.031201 
   28.031833 
   28.032698 
   28.033726 
   28.034861 
   28.036242 
   28.037741 
   28.039287 
   28.040683 
    28.04184 
   28.042761 
    28.04341 
   28.043824 
    28.04399 
   28.043774 
   28.043238 
   28.042596 
   28.041735 
   28.040749 
   28.039604 
   28.038298 
   28.036914 
   28.035426 
   28.033983 
   28.032531 
   28.031065 
   28.029806 
   28.028687 
   28.027826 
   28.027157 
   28.026756 
   28.026532 
   28.026627 
   28.027065 
   28.027713 
    28.02879 
   28.030084 
   28.031711 
   28.033644 
   28.035777 
   28.038081 
   28.040446 
    28.04273 
   28.044758 
   28.046447 
    28.04751 
   28.048018 
   28.047955 
   28.047405 
   28.046549 
   28.045509 
   28.044331 
   28.042864 
   28.041311 
   28.039722 
   28.038179 
   28.036665 
   28.035251 
   28.033832 
   28.032527 
   28.031439 
   28.030447 
   28.029623 
   28.028986 
   28.028726 
   28.028785 
   28.029174 
   28.029974 
   28.031246 
   28.032989 
   28.034929 
   28.037132 
   28.039361 
   28.041466 
   28.043415 
   28.045104 
   28.046363 
   28.047154 
   28.047531 
   28.047419 
   28.046892 
   28.045949 
   28.044607 
    28.04299 
   28.041261 
   28.039358 
   28.037432 
   28.035382 
   28.033272 
   28.031228 
   28.029346 
   28.027737 
   28.026439 
    28.02539 
    28.02487 
   28.024906 
   28.025336 
   28.026259 
   28.027635 
   28.029481 
   28.031743 
   28.034282 
   28.037172 
   28.040352 
    28.04359 
   28.046688 
   28.049483 
   28.051648 
   28.053175 
   28.053956 
   28.054056 
   28.053562 
   28.052431 
   28.050626 
   28.048452 
   28.045956 
   28.043365 
   28.040639 
   28.037988 
   28.035352 
   28.032891 
   28.030635 
   28.028605 
   28.026785 
   28.025267 
   28.024053 
   28.023275 
   28.022938 
   28.023084 
   28.023756 
   28.025023 
   28.026776 
   28.028984 
    28.03158 
   28.034429 
   28.037381 
   28.040464 
   28.043397 
   28.045919 
   28.047943 
   28.049323 
   28.050099 
   28.050269 
   28.049797 
   28.048769 
   28.047281 
    28.04553 
   28.043583 
    28.04131 
   28.038828 
   28.036372 
   28.033953 
    28.03165 
   28.029385 
   28.027319 
   28.025652 
   28.024361 
   28.023636 
   28.023458 
   28.023799 
   28.024631 
   28.025985 
   28.027965 
   28.030508 
   28.033475 
   28.036807 
   28.040281 
   28.043766 
   28.047135 
   28.050189 
   28.052826 
   28.054866 
   28.056072 
   28.056297 
   28.055767 
   28.054583 
   28.052881 
    28.05075 
   28.048344 
   28.045625 
   28.042679 
   28.039755 
   28.036925 
   28.034243 
    28.03181 
   28.029535 
   28.027713 
   28.026325 
   28.025449 
   28.025165 
   28.025322 
   28.025927 
    28.02705 
   28.028696 
   28.030941 
   28.033718 
   28.036981 
   28.040475 
   28.044078 
   28.047694 
   28.051153 
   28.054229 
   28.056672 
   28.058353 
   28.059121 
   28.059101 
   28.058223 
    28.05669 
   28.054619 
   28.051997 
   28.048998 
   28.045802 
   28.042506 
   28.039205 
   28.036105 
   28.033067 
   28.030254 
   28.027839 
   28.025837 
   28.024336 
    28.02344 
   28.023105 
   28.023406 
   28.024326 
   28.025906 
   28.028107 
   28.030789 
   28.033886 
   28.037203 
   28.040752 
    28.04433 
   28.047741 
   28.050916 
   28.053598 
   28.055611 
   28.056926 
   28.057502 
    28.05725 
    28.05616 
   28.054474 
   28.052299 
   28.049643 
    28.04667 
   28.043429 
   28.040144 
   28.036925 
   28.033731 
   28.030781 
   28.028015 
   28.025663 
   28.023765 
   28.022458 
   28.021707 
   28.021636 
   28.022188 
   28.023445 
   28.025288 
   28.027621 
   28.030309 
   28.033407 
   28.036789 
   28.040279 
    28.04384 
   28.047293 
   28.050428 
   28.053172 
   28.055352 
   28.056861 
    28.05754 
   28.057592 
   28.056821 
   28.055458 
   28.053594 
   28.051312 
   28.048657 
   28.045824 
   28.042973 
   28.040291 
   28.037664 
   28.035308 
   28.033211 
   28.031436 
   28.030009 
    28.02908 
   28.028538 
   28.028432 
    28.02878 
   28.029512 
   28.030607 
   28.031928 
    28.03358 
   28.035561 
   28.037774 
   28.039953 
     28.0421 
   28.044104 
   28.045878 
   28.047198 
   28.048116 
   28.048646 
     28.0488 
    28.04848 
   28.047683 
   28.046521 
   28.044981 
   28.043216 
   28.041335 
   28.039285 
   28.037243 
   28.035291 
   28.033554 
   28.032134 
   28.030946 
   28.029995 
    28.02947 
   28.029294 
   28.029423 
   28.029824 
   28.030439 
   28.031249 
   28.032269 
   28.033486 
   28.034923 
   28.036633 
    28.03842 
   28.040402 
   28.042606 
   28.044887 
   28.047058 
   28.049025 
   28.050563 
   28.051585 
    28.05208 
   28.051839 
   28.051058 
    28.04962 
    28.04767 
   28.045363 
   28.042784 
   28.039983 
   28.037116 
   28.034305 
   28.031614 
   28.029065 
   28.026634 
   28.024426 
   28.022543 
   28.020913 
   28.019631 
   28.018783 
   28.018292 
   28.018182 
   28.018608 
   28.019522 
   28.021037 
    28.02301 
   28.025279 
   28.027972 
    28.03093 
   28.034139 
   28.037343 
   28.040407 
    28.04311 
   28.045326 
   28.047043 
   28.048025 
   28.048484 
   28.048327 
   28.047597 
   28.046465 
   28.044949 
   28.043246 
   28.041448 
   28.039651 
   28.038025 
   28.036605 
   28.035344 
    28.03442 
   28.033671 
   28.033107 
   28.032775 
   28.032716 
   28.032976 
   28.033664 
   28.034689 
   28.036029 
   28.037695 
   28.039581 
   28.041684 
    28.04383 
   28.045902 
   28.047765 
   28.049246 
   28.050215 
   28.050678 
   28.050599 
   28.050087 
    28.04908 
   28.047635 
   28.045747 
   28.043613 
   28.041206 
   28.038867 
   28.036688 
   28.034728 
   28.033025 
   28.031678 
   28.030717 
   28.030216 
   28.030175 
   28.030547 
   28.031258 
   28.032371 
   28.033744 
   28.035345 
   28.037234 
   28.039098 
   28.041014 
   28.043064 
   28.045213 
   28.047188 
   28.049095 
   28.050765 
   28.052134 
   28.053176 
   28.053985 
   28.054279 
   28.054041 
   28.053309 
   28.052001 
   28.050127 
   28.047693 
    28.04495 
    28.04187 
   28.038849 
   28.035839 
   28.033096 
   28.030681 
   28.028594 
   28.027027 
   28.025911 
   28.025305 
   28.025143 
   28.025392 
   28.026016 
   28.026887 
   28.028055 
   28.029474 
   28.031282 
   28.033394 
   28.035674 
   28.038119 
   28.040598 
   28.043045 
   28.045329 
   28.047302 
   28.049036 
     28.0504 
   28.051218 
   28.051499 
   28.051063 
    28.05002 
   28.048303 
   28.046098 
    28.04344 
   28.040594 
   28.037593 
   28.034712 
   28.032133 
   28.029818 
   28.027895 
   28.026422 
   28.025504 
   28.024983 
   28.024834 
   28.025139 
    28.02567 
   28.026413 
   28.027287 
   28.028331 
   28.029495 
   28.030636 
   28.031866 
   28.033235 
   28.034612 
    28.03595 
    28.03731 
    28.03857 
   28.039744 
    28.04081 
   28.041723 
   28.042384 
   28.042668 
   28.042696 
   28.042282 
    28.04148 
   28.040342 
   28.039044 
   28.037762 
   28.036539 
   28.035329 
   28.034353 
   28.033802 
   28.033512 
   28.033472 
   28.033588 
    28.03392 
   28.034383 
   28.034963 
   28.035638 
   28.036427 
   28.037269 
   28.038074 
   28.038999 
   28.039864 
   28.040725 
   28.041689 
   28.042783 
   28.043846