LAMMPS (17 Nov 2016)
units lj
dimension 3
atom_style bond
bond_style harmonic
pair_style lj/cut 3
read_data data.polymer
  orthogonal box = (0 0 0) to (60 30 30)
  1 by 1 by 1 MPI processor grid
  reading atoms ...
  8887 atoms
  scanning bonds ...
  1 = max bonds/atom
  reading bonds ...
  9 bonds
  2 = max # of 1-2 neighbors
  2 = max # of 1-3 neighbors
  4 = max # of 1-4 neighbors
  6 = max # of special neighbors
region void cylinder x 15 15 2 29 31
pair_coeff 1 2 2.5 3
pair_coeff 1 3 2.5 1.12
pair_coeff 2 3 2.5 1.12
velocity all create 1 97287
group polymer type 1 2
10 atoms in group polymer
group first type 1
1 atoms in group first
region box block 0 60 0 30 0 30
region spherein sphere 29 15 15 2
region boxin block 27 29 13 17 13 17
region hemiin intersect 2 boxin spherein
info system
info system
print "$(x[1])"
22
print "$(y[1])"
15
print "$(z[1])"
15
info system
info system
print "$(x[1])"
22
print "$(y[1])"
15
print "$(z[1])"
15
info system
info system
print "$(x[1])"
22
print "$(y[1])"
15
print "$(z[1])"
15
fix 1 polymer nve
fix 2 polymer langevin 1 1 1.5 28039
fix 3 polymer spring tether 10 30 15 15 5.0
timestep 0.02
compute com polymer com
variable ftotal equal fcm(polymer,x)
thermo_style custom v_ftotal
thermo 1
run 5000
Neighbor list info ...
  1 neighbor list requests
  update every 1 steps, delay 10 steps, check yes
  max neighbors/atom: 2000, page size: 100000
  master list distance cutoff = 3.3
  ghost atom cutoff = 3.3
  binsize = 1.65 -> bins = 37 19 19
Memory usage per processor = 4.0961 Mbytes
v_ftotal 
   73.118184 
   54.301244 
   25.811638 
   91.731187 
   57.581977 
   91.318049 
   60.232566 
   60.878314 
   11.071033 
   63.714003 
   43.252351 
   94.185446 
   76.528609 
   115.04997 
   100.27229 
    100.8337 
  -37.026857 
   11.417507 
   12.279323 
   32.636151 
    58.52761 
   20.228263 
   61.951079 
   58.654739 
   68.229766 
   51.215034 
  0.30946346 
   35.561061 
   9.9979323 
   1.5929171 
   42.887564 
  -7.9436246 
   70.556135 
   17.960037 
   62.351301 
  -2.4129829 
   32.395113 
   10.586903 
   57.398922 
  -40.166153 
   53.087538 
   40.097792 
  -14.388015 
   64.164432 
   31.812974 
  -29.671588 
   6.2093191 
   22.192943 
   43.994178 
 -0.18950567 
   63.841025 
   42.468267 
   38.747712 
   35.378387 
  -3.4337488 
  -21.885889 
   3.3123754 
   35.903124 
   1.8011742 
   52.811996 
  -19.866198 
   16.136545 
  -22.484673 
   36.036225 
   66.726174 
  -25.225415 
  -25.840341 
  -27.303826 
   6.1493539 
   7.8294623 
  -16.695941 
   2.7046501 
   26.012664 
  -35.794176 
 -0.78926344 
  -10.696221 
   12.383611 
  -6.5928564 
   8.8695534 
  -21.160893 
   45.576451 
  -5.6582948 
  -19.278077 
  -14.258749 
   34.408465 
  -9.4650872 
  -454.86962 
  -173.37961 
  -21.990399 
   53.091362 
   43.412053 
  -18.489864 
   28.367329 
  -63.683646 
  -34.863053 
  -30.834613 
   5.7639335 
   8.9429139 
   -19.71445 
  -28.963412 
   11.337481 
  -50.772466 
  -41.987598 
  -19.995582 
   4.2197982 
   7.3255553 
  -5.9136923 
  -17.806582 
  -23.548123 
  -60.269545 
  -71.732082 
   2.6174391 
   25.288677 
  -1.3563656 
   62.493027 
  -39.333328 
   59.114039 
   2.5071719 
   68.691777 
  -15.383715 
   65.170867 
   10.132345 
   10.206574 
   -16.28442 
   49.967031 
   32.705126 
  -70.439928 
  -305.09998 
  -31.439282 
   39.347965 
  0.78284934 
   51.439657 
  -21.422881 
  -304.72962 
  -74.242176 
   12.914147 
   0.3254251 
   -22.64818 
    20.76339 
   10.189753 
   14.977902 
  -5.1752895 
   47.133324 
   19.270919 
  -6.0391747 
   1.4396657 
   8.3538814 
   2.0441025 
   -7.831022 
   30.844658 
  -34.665717 
   27.725927 
  -68.824283 
   11.526974 
   -67.03058 
  -80.957005 
  -46.063858 
  -12.431111 
  -22.861165 
   1.4505633 
   5.3128232 
   9.5669749 
   13.397989 
  -6.0023777 
  -7.7753828 
  -7.5227375 
   14.917036 
   23.233219 
  -35.165369 
  -67.979522 
  -111.32021 
  -16.370703 
  -7.0384148 
   -14.33729 
  -20.181087 
  -58.182851 
  -14.140667 
   42.268926 
  -26.363051 
  -54.830428 
   22.701444 
  -15.426937