LAMMPS (17 Nov 2016)
units lj
dimension 3
atom_style bond
bond_style harmonic
pair_style lj/cut 3
read_data data.polymer
  orthogonal box = (0 0 0) to (60 30 30)
  1 by 1 by 1 MPI processor grid
  reading atoms ...
  8887 atoms
  scanning bonds ...
  1 = max bonds/atom
  reading bonds ...
  9 bonds
  2 = max # of 1-2 neighbors
  2 = max # of 1-3 neighbors
  4 = max # of 1-4 neighbors
  6 = max # of special neighbors
region void cylinder x 15 15 2 29 31
pair_coeff 1 2 2.5 3
pair_coeff 1 3 2.5 1.12
pair_coeff 2 3 2.5 1.12
velocity all create 1 97287
group polymer type 1 2
10 atoms in group polymer
group first type 1
1 atoms in group first
region box block 0 60 0 30 0 30
region spherein sphere 29 15 15 2
region boxin block 27 29 13 17 13 17
region hemiin intersect 2 boxin spherein
info system
info system
print "$(x[1])"
22
print "$(y[1])"
15
print "$(z[1])"
15
info system
info system
print "$(x[1])"
22
print "$(y[1])"
15
print "$(z[1])"
15
info system
info system
print "$(x[1])"
22
print "$(y[1])"
15
print "$(z[1])"
15
fix 1 polymer nve
fix 2 polymer langevin 1 1 1.5 188816
fix 3 polymer spring tether 10 3.5 NULL NULL 0
timestep 0.01
compute com polymer com
variable ftotal equal fcm(polymer,x)
variable c equal c_com[1]
thermo_style custom v_ftotal v_c
thermo 1
run 500
Neighbor list info ...
  1 neighbor list requests
  update every 1 steps, delay 10 steps, check yes
  max neighbors/atom: 2000, page size: 100000
  master list distance cutoff = 3.3
  ghost atom cutoff = 3.3
  binsize = 1.65 -> bins = 37 19 19
Memory usage per processor = 4.0961 Mbytes
v_ftotal v_c 
   -124.1314         17.5 
  -144.30753    17.499792 
  -75.769267    17.498141 
  -136.06941    17.495733 
  -104.54061    17.491964 
  -180.52382    17.487149 
  -108.26554    17.480529 
  -238.43047    17.472826 
  -85.196886     17.46274 
  -109.48416    17.451801 
  -99.520458    17.439767 
  -188.12571    17.426738 
  -196.58192    17.411828 
  -131.38367    17.394952 
  -134.62131    17.376762 
  -147.57115    17.357226 
  -135.82177    17.336215 
  -51.280222    17.313845 
  -180.67546    17.290962 
  -116.17501    17.266272 
  -72.274055    17.240421 
   -205.6315    17.213847 
  -104.68294    17.185217 
  -121.49077     17.15554 
  -157.73279    17.124648 
  -154.09559    17.092178 
  -106.25791    17.058168 
  -109.62426    17.023095 
  -104.63375    16.986926 
  -174.99581    16.949711 
   -97.01216    16.910745 
  -11.192955     16.87081 
  -158.34696    16.830762 
  -36.685458    16.789131 
  -112.20224    16.747133 
  -183.64419    16.704014 
  -98.978367    16.659057 
  -100.63592    16.613111 
   -96.66289    16.566159 
  -143.17249     16.51824 
   -106.5144    16.468889 
  -103.59303    16.418473 
  -4.4119192    16.367021 
  -60.297412    16.315525 
  -165.25542    16.263426 
  -38.131662    16.209675 
  -99.804998    16.155542 
  -135.79736    16.100411 
  -65.212963    16.043922 
  -90.574975    15.986781 
  -97.822641    15.928735 
  -134.74328     15.86971 
  -146.31714    15.809337 
   -101.2871    15.747502 
  -78.812834    15.684653 
  -109.38104    15.621017 
  -111.00099    15.556287 
  -121.71612    15.490446 
  -49.880655    15.423389 
  -113.47657    15.355832 
  -72.601302    15.287141 
   17.807668    15.217724 
  -81.447568    15.148485 
  -46.482593    15.078432 
  -47.884694    15.007913 
  -35.553597    14.936916 
  -96.441902    14.865563 
   -6.661175    14.793246 
  -76.773302    14.720863 
   -136.2736    14.647711 
  -55.570695    14.573197 
  -34.119956    14.498127 
  -54.979375    14.422716 
  -85.660316    14.346755 
  -44.948952    14.269937 
   38.967833     14.19267 
  -69.772113    14.115793 
   28.822949    14.038218 
   -49.79961    13.960931 
  -42.278599    13.883146 
   10.575467    13.804939 
  -78.498387    13.726837 
  -36.665914     13.64795 
  -72.836999    13.568697 
  -25.030265    13.488715 
  -89.885057    13.408483 
  -32.104276    13.327352 
  -86.011042      13.2459 
  -37.406836    13.163587 
 0.049541201    13.080901 
  -55.917927    12.998215 
   -1.339457     12.91497 
  -19.579246    12.831712 
  -13.755053    12.748258 
  -42.904341    12.664666 
  -70.000153    12.580646 
   -48.97847    12.495925 
  -43.688399    12.410714 
   -11.96244    12.325067 
   26.782344      12.2393 
  -44.614969    12.153801 
  -3.8200279    12.067856 
    28.15576    11.981872 
  -82.494391     11.89617 
  -80.404551    11.809643 
  -50.991996    11.722312 
  -19.069037    11.634471 
  -9.3494127     11.54644 
   14.148748    11.458315 
   21.457203    11.370331 
   13.352269    11.282562 
   -58.12964    11.194927 
   -35.92566     11.10671 
  -38.419971    11.018134 
  -4.1386144    10.929174 
  -56.889399    10.840172 
  -58.064809    10.750602 
   107.91807     10.66045 
  -36.890511    10.571378 
   -55.20387    10.481938 
   40.323159    10.391945 
   31.071318    10.302355 
   77.595348    10.213076 
  -13.005309    10.124573 
   -57.92615     10.03594 
  -1.5873468    9.9467276 
   27.591022    9.8574994 
   6.7762665    9.7685471 
   21.264899    9.6796626 
   63.495998    9.5909907 
   25.768018    9.5029537 
   1.0271435    9.4151745 
   28.339417    9.3274055 
  -37.722103    9.2399199 
   45.376985    9.1520571 
  -2.4392701    9.0646481 
   61.086862    8.9772147 
  -48.945305    8.8903921 
  -11.973772    8.8030801 
  0.26955961    8.7156484 
   83.432908    8.6282193 
   -12.41085    8.5416246 
  -63.205663    8.4549058 
  -40.997938    8.3675549 
  -62.505293     8.279794 
  -83.132072    8.1914081 
   26.294098    8.1021909 
   15.612754    8.0132366 
   2.9598065    7.9244384 
  -23.769493    7.8356698 
   3.6627618    7.7466635 
  -50.353604    7.6576939 
   41.378959    7.5682207 
  -6.2294404    7.4791613 
   14.352437    7.3900397 
   37.568366    7.3010615 
    21.79506     7.212459 
   41.682834    7.1240745 
   85.919331    7.0361068 
   38.436308    6.9489983 
  -21.590565    6.8622742 
   67.512215    6.7753341 
   13.932561    6.6890692 
   2.8516446    6.6029436 
    11.67398    6.5168465 
   96.985404    6.4308662 
   12.253692    6.3458557 
   73.660338    6.2609677 
  -13.322015    6.1768164 
   11.921726    6.0925318 
   11.698867    6.0083665 
   13.712744    5.9243181 
     10.1858    5.8404069 
  -25.406791    5.7565975 
   2.8291864    5.6725341 
   73.594729    5.5884989 
   9.9231844    5.5051997 
   51.669564    5.4219998 
  -14.961304    5.3393165 
  -27.046797    5.2564836 
   16.421464    5.1733802 
   99.526049    5.0904411 
   42.349012    5.0084972 
   -10.88424    4.9269768 
   46.781906    4.8453476 
   64.332782    4.7641862 
   59.048017    4.6836681 
   71.154155    4.6037405 
   -36.18878    4.5245244 
   47.285795    4.4449465 
    46.08293    4.3658414 
   34.679689    4.2871971 
  -7.6155052    4.2088996 
   40.751116     4.130526 
   24.488533    4.0525599 
   31.421792    3.9748387 
   34.372786    3.8974317 
  -20.049131    3.8203684 
   11.904207    3.7431046 
   31.369932    3.6659599 
   62.204948    3.5891288 
   110.06125    3.5129199 
   110.54948    3.4378115 
   32.781803    3.3638086 
   30.513791    3.2901336 
   24.371435    3.2167636 
   117.42523    3.1436374 
   85.462104    3.0716855 
   90.377202    3.0005881 
    17.85898    2.9303946 
   54.891631    2.8603796 
   51.950959    2.7909136 
   50.548634     2.721967 
  -6.1174819     2.653526 
  -24.778626    2.5850237 
   59.316477    2.5162737 
   80.532041    2.4481169 
   59.866586    2.3807653 
   30.765061    2.3140125 
    100.1802    2.2475672 
  -28.732297    2.1821238 
  -5.0180593    2.1163931 
   73.743382    2.0506122 
   7.5448722    1.9855687 
   128.13492    1.9206006 
    42.82237     1.856914 
   76.438133    1.7936555 
   120.08671    1.7311614 
   84.482401    1.6698682 
   40.475762    1.6094198 
    82.47549    1.5493762 
   139.84964    1.4901573 
   37.970879    1.4323369 
    112.2428    1.3748962 
   111.07739     1.318578 
    71.55003    1.2633705 
   86.444061    1.2088786 
   64.082208     1.155251 
   66.223518    1.1022643 
   19.071658    1.0499399 
   82.598099    0.9978061 
  -10.526471   0.94649832 
   95.907736   0.89508528 
    64.25863   0.84463132 
    87.67173   0.79481994 
   79.502899   0.74588529 
   90.577795   0.69774566 
   49.913266    0.6505118 
   54.618573   0.60377709 
   91.187182   0.55758855 
   35.827757   0.51231189 
  -20.820796   0.46739351 
   79.635377   0.42226692 
   69.866297   0.37793668 
   49.055525    0.3343051 
   28.449874   0.29116408 
   32.605757   0.24830756 
   28.806705    0.2057771 
   46.354289    0.1635347 
   54.301136   0.12175585 
   86.585869  0.080520004 
   51.291461  0.040150021 
      59.841 0.00029295166 
   116.46446 -0.038965707 
   113.58371 -0.077059722 
   71.445365   -0.1140179 
   60.795759  -0.15026162 
   45.061571  -0.18589739 
   70.681914  -0.22108254 
   76.701956  -0.25556087 
   65.615519  -0.28927218 
   67.850291  -0.32232734 
   86.917278  -0.35470399 
   126.57289  -0.38621147 
   71.588266  -0.41645323 
    74.20178  -0.44597909 
   16.408063  -0.47476295 
   82.489765  -0.50338272 
   76.121915  -0.53117759 
   55.821484  -0.55821124 
   39.295874  -0.58468668 
   82.681236  -0.61076916 
   53.411382  -0.63602483 
   69.981341  -0.66074639 
   96.978343  -0.68476813 
   4.7462275  -0.70782008 
   104.25113  -0.73082458 
   120.97374  -0.75278656 
   80.354654  -0.77353881 
   51.725265  -0.79348751 
   41.446823  -0.81291896 
   48.292029  -0.83193594 
   96.244591     -0.85047 
   42.279712  -0.86804161 
   58.092683  -0.88519042 
   77.642772  -0.90175831 
   66.346546  -0.91754977 
   54.849211  -0.93267777 
   50.131759  -0.94725727 
   53.230115  -0.96133546 
   46.287684  -0.97488134 
   7.9882694  -0.98796435 
    26.35851   -1.0009675 
   42.310901    -1.013707 
   98.344762   -1.0260234 
   1.9409827   -1.0373564 
   60.443681     -1.04867 
   27.706022   -1.0593791 
   117.11002   -1.0698112 
   83.374378   -1.0790722 
   96.406992   -1.0874994 
   119.25734   -1.0949626 
  -2.8663715   -1.1012332 
   90.825228   -1.1075324 
   14.820052   -1.1129234 
   62.846709   -1.1181662 
   83.017714   -1.1227806 
   84.466078   -1.1265647 
 -0.85514884   -1.1295042 
    -33.5089   -1.1324523 
   22.859916   -1.1357354 
   110.84194   -1.1387899 
   13.101818   -1.1407361 
    29.62165   -1.1425512 
   7.4575256     -1.14407 
   61.247704   -1.1455143 
  -3.2782269   -1.1463462 
   46.634228   -1.1472108 
   30.862247   -1.1476091 
   31.610836   -1.1476987 
   62.007333   -1.1474722 
   63.257942   -1.1466257 
   67.332952   -1.1451466 
   47.725476   -1.1429942 
  -5.3041017   -1.1403645 
   71.305276   -1.1377878 
    85.60723   -1.1344981 
   39.463176   -1.1303523 
   -39.04511   -1.1258119 
   47.804777   -1.1216619 
  -5.1286066   -1.1170339 
   63.951628   -1.1124572 
  -12.528253    -1.107241 
   11.886316     -1.10215 
   41.379674   -1.0969402 
   12.538562   -1.0913166 
   100.95974   -1.0855676 
  -15.406844    -1.078809 
   83.378728   -1.0722044 
   -6.735027   -1.0647661 
    27.26456   -1.0573951 
   21.148063   -1.0497515 
  -2.3743545   -1.0418964 
   33.126616   -1.0340651 
   40.458511   -1.0259025 
   47.596738   -1.0173353 
   50.734267   -1.0082921 
    33.20635  -0.99874158 
   31.697298    -0.988859 
   52.222489  -0.97865945 
   81.428033  -0.96793768 
   2.4684678  -0.95640162 
   31.207344  -0.94484088 
   65.952367  -0.93296807 
   17.661049  -0.92043573 
   14.841258  -0.90772679 
  -25.152778  -0.89486943 
  -50.822872   -0.8822636 
     -2.7294  -0.87016599 
   73.190499  -0.85809568 
   27.483314  -0.84529347 
   58.683417  -0.83221642 
   83.608723  -0.81855254 
   4.1806121  -0.80405257 
   52.518352   -0.7895108 
   64.982977  -0.77444384 
   44.079956  -0.75872705 
 -0.22767758  -0.74256946 
   50.605963  -0.72641415 
   58.997407  -0.70975278 
   77.338889  -0.69250144 
   41.429523   -0.6744767 
  -11.254324  -0.65603767 
   32.732977  -0.63771119 
   71.822221  -0.61905737 
     59.0566  -0.59968534 
   20.572848  -0.57972273 
   27.038514   -0.5595544 
   68.314039  -0.53911568 
     24.6557  -0.51799383 
   109.77227  -0.49662541 
  -1.0514096  -0.47415928 
   50.082071  -0.45170365 
   12.923167  -0.42874721 
   7.7761532  -0.40566153 
   21.170864   -0.3824981 
   26.157587  -0.35912295 
    63.99759  -0.33548623 
   48.373386  -0.31120953 
   25.231798   -0.2864491 
  -13.797026  -0.26143635 
   57.035863  -0.23656157 
  -17.155053  -0.21111643 
  -45.298359  -0.18584285 
    13.43042  -0.16102224 
  -6.3981752  -0.13606734 
  -14.040632  -0.11117641 
    44.39983  -0.08642589 
  -24.142289 -0.061231372 
   13.504958 -0.036278276 
   19.069624 -0.011190132 
  -8.2463636  0.014088709 
    3.245124  0.039285086 
   24.744464  0.064513915 
   28.182212  0.089990188 
   -29.66676   0.11574828 
  -20.483095   0.14120971 
   54.846528   0.16646631 
   9.5413449   0.19227137 
  -22.430522   0.21817185 
  -9.0891582   0.24384802 
   41.960271   0.26943329 
   50.464286   0.29543818 
   67.807534    0.3219477 
  -39.132596    0.3491353 
   76.809214   0.37593157 
    36.60079   0.40349594 
   10.660492   0.43142631 
  -27.478969   0.45946329 
  -37.985169   0.48722548 
   15.518975   0.51460782 
  -47.531788   0.54214534 
   35.240804   0.56920755 
  -42.276798   0.59662217 
   46.128173   0.62361402 
  -57.982717   0.65106715 
  -13.837408   0.67794045 
  -4.7331951   0.70467538 
  -67.403733   0.73136298 
  -43.698736   0.75737654 
   23.769776   0.78295311 
  -31.847793   0.80876738 
   1.8536216   0.83426318 
   63.119829   0.85977751 
  -23.307833   0.88592303 
    59.20387   0.91183548 
   25.375736   0.93833997 
   -15.53982   0.96509822 
  -21.717298   0.99170106 
  -28.098496    1.0180867 
   48.643779    1.0441914 
   9.7365463    1.0707826 
   35.135027     1.097471 
   1.1196769    1.1245109 
   -37.80204    1.1515619 
    1.760635    1.1782349 
   1.5433601    1.2049256 
   24.252737    1.2316316 
   57.310343    1.2585802 
   38.761254    1.2861019 
    12.81708    1.3140112 
  -50.813417    1.3420487 
   6.1370645     1.369578 
   24.118095    1.3971687 
    69.48949    1.4250006 
    27.10509    1.4535274 
  -3.9024455    1.4823252 
   92.027279    1.5110841 
   11.727554    1.5407631 
  -29.722414    1.5705595 
   17.056476    1.6000586 
  -35.133363    1.6297283 
  -10.769662    1.6590467 
  -35.319722    1.6882574 
   10.410113    1.7171148 
   18.583204    1.7460764 
   25.559337    1.7752238 
   40.192373    1.8046268 
   76.541021    1.8344317 
  -24.124619    1.8650021 
  -29.209653    1.8953312 
   1.3694602    1.9253682 
   -36.39903    1.9554188 
  -89.786734    1.9851055 
  -29.778549    2.0138944 
   32.978761    2.0423854 
    12.36194    2.0712062 
    11.06159    2.1001507 
  -24.115411    2.1292058 
  -37.625578    2.1580197 
  -50.756796    2.1864573 
   27.987226    2.2143874 
  -23.366023    2.2425974 
  -69.442381    2.2705737 
   1.2266945    2.2978555 
  -81.555286    2.3251497 
  0.74253275    2.3516283 
  -48.259561    2.3781143 
   48.351763    2.4041177 
  -25.525923    2.4306046 
    11.27942    2.4568363 
Loop time of 11.5136 on 1 procs for 500 steps with 8887 atoms

Performance: 37520.819 tau/day, 43.427 timesteps/s
99.8% CPU use with 1 MPI tasks x no OpenMP threads

MPI task timing breakdown:
Section |  min time  |  avg time  |  max time  |%varavg| %total
---------------------------------------------------------------
Pair    | 10.265     | 10.265     | 10.265     |   0.0 | 89.15
Bond    | 0.000748   | 0.000748   | 0.000748   |   nan |  0.01
Neigh   | 1.1688     | 1.1688     | 1.1688     |   0.0 | 10.15
Comm    | 0.029729   | 0.029729   | 0.029729   |   0.0 |  0.26
Output  | 0.016009   | 0.016009   | 0.016009   |   0.0 |  0.14
Modify  | 0.019531   | 0.019531   | 0.019531   |   0.0 |  0.17
Other   |            | 0.01407    |            |       |  0.12

Nlocal:    8887 ave 8887 max 8887 min
Histogram: 1 0 0 0 0 0 0 0 0 0
Nghost:    4329 ave 4329 max 4329 min
Histogram: 1 0 0 0 0 0 0 0 0 0
Neighs:    1.36211e+06 ave 1.36211e+06 max 1.36211e+06 min
Histogram: 1 0 0 0 0 0 0 0 0 0

Total # of neighbors = 1362112
Ave neighs/atom = 153.27
Ave special neighs/atom = 0.00540115
Neighbor list builds = 50
Dangerous builds = 50
Total wall time: 0:00:11
