LAMMPS (31 Mar 2017)
# sample LAMMPS input script for smoothforce function

# settings
variable	x equal 30
variable	y equal 30
variable    z equal 30
variable    t equal 1.0
variable	rc equal 3

# problem setup

units		lj
dimension	3
atom_style	atomic
neigh_modify	delay 0 every 1

region          simbox block 0 $x 0 $y 0 $z
region          simbox block 0 30 0 $y 0 $z
region          simbox block 0 30 0 30 0 $z
region          simbox block 0 30 0 30 0 30
create_box      1 simbox
Created orthogonal box = (0 0 0) to (30 30 30)
  1 by 2 by 2 MPI processor grid
create_atoms    1 single 10 10 10
Created 1 atoms

pair_style      lj/cut ${rc}
pair_style      lj/cut 3
pair_coeff      * * 1 1

mass            * 1.0
velocity        all set 0.5 0.5 0.5

fix             1 all nvt temp $t $t 1
fix             1 all nvt temp 1 $t 1
fix             1 all nvt temp 1 1 1
group           single type 1
1 atoms in group single
fix             2 single smoothforce 11 19 0.15 0 3
#fix             3 single spring tether 3 23 NULL NULL 0



# data gathering run
compute         com single com
reset_timestep  0
thermo_style    custom c_com[1] f_2
dump            1 single custom 1 force.txt id id x fx

thermo          1
run	        250000
Neighbor list info ...
  update every 1 steps, delay 0 steps, check yes
  max neighbors/atom: 2000, page size: 100000
  master list distance cutoff = 3.3
  ghost atom cutoff = 3.3
  binsize = 1.65, bins = 19 19 19
  1 neighbor lists, perpetual/occasional/extra = 1 0 0
  (1) pair lj/cut, perpetual
      attributes: half, newton on
      pair build: half/bin/atomonly/newton
      stencil: half/bin/3d/newton
      bin: standard
Per MPI rank memory allocation (min/avg/max) = 0.4509 | 1.326 | 3.951 Mbytes
c_com[1] f_2 
          10 4.8587825e-06 
     10.0025 5.0234712e-06 
      10.005 5.1937421e-06 
     10.0075 5.3697843e-06 
       10.01 5.5517934e-06 
     10.0125 5.7399717e-06 
      10.015 5.9345284e-06 
     10.0175 6.1356796e-06 
       10.02 6.3436488e-06 
     10.0225 6.5586671e-06 
      10.025 6.7809735e-06 
     10.0275 7.010815e-06 
       10.03 7.2484469e-06 
     10.0325 7.4941334e-06 
      10.035 7.7481475e-06 
     10.0375 8.0107714e-06 
       10.04 8.2822969e-06 
     10.0425 8.5630258e-06 
      10.045  8.85327e-06 
     10.0475 9.1533521e-06 
       10.05 9.4636054e-06 
     10.0525 9.7843748e-06 
      10.055 1.0116017e-05 
     10.0575  1.04589e-05 
       10.06 1.0813405e-05 
     10.0625 1.1179925e-05 
      10.065 1.155887e-05 
     10.0675 1.1950658e-05 
       10.07 1.2355726e-05 
     10.0725 1.2774524e-05 
      10.075 1.3207517e-05 
     10.0775 1.3655187e-05 
       10.08 1.411803e-05 
     10.0825 1.4596561e-05 
      10.085 1.5091312e-05 
     10.0875 1.5602833e-05 
       10.09 1.6131692e-05 
     10.0925 1.6678476e-05 
      10.095 1.7243794e-05 
     10.0975 1.7828273e-05 
        10.1 1.8432563e-05 
     10.1025 1.9057336e-05 
      10.105 1.9703285e-05 
     10.1075 2.0371128e-05 
       10.11 2.1061609e-05 
     10.1125 2.1775493e-05 
      10.115 2.2513574e-05 
     10.1175 2.3276672e-05 
       10.12 2.4065636e-05 
     10.1225 2.4881341e-05 
      10.125 2.5724695e-05 
     10.1275 2.6596635e-05 
       10.13 2.7498128e-05 
     10.1325 2.8430178e-05 
      10.135 2.939382e-05 
     10.1375 3.0390124e-05 
       10.14 3.1420199e-05 
     10.1425 3.2485187e-05 
      10.145 3.3586273e-05 
     10.1475 3.4724681e-05 
       10.15 3.5901675e-05 
   10.152501 3.7118563e-05 
   10.155001 3.8376697e-05 
   10.157501 3.9677476e-05 
   10.160001 4.1022345e-05 
   10.162501 4.2412798e-05 
   10.165001 4.385038e-05 
   10.167501 4.5336689e-05 
   10.170001 4.6873377e-05 
   10.172501 4.846215e-05 
   10.175001 5.0104775e-05 
   10.177501 5.1803077e-05 
   10.180001 5.3558942e-05 
   10.182501 5.5374323e-05 
   10.185001 5.7251235e-05 
   10.187501 5.9191766e-05 
   10.190001 6.119807e-05 
   10.192501 6.3272378e-05 
   10.195001 6.5416995e-05 
   10.197501 6.7634303e-05 
   10.200001 6.9926767e-05 
   10.202501 7.2296933e-05 
   10.205001 7.4747436e-05 
   10.207501 7.7280999e-05 
   10.210001 7.9900436e-05 
   10.212501 8.2608659e-05 
   10.215001 8.5408676e-05 
   10.217502  8.83036e-05 
   10.220002 9.1296647e-05 
   10.222502 9.4391143e-05 
   10.225002 9.7590527e-05 
   10.227502 0.00010089835 
   10.230002 0.0001043183 
   10.232502 0.00010785416 
   10.235002 0.00011150987 
   10.237502 0.00011528949 
   10.240002 0.00011919722 
   10.242502 0.0001232374 
   10.245002 0.00012741452 
   10.247502 0.00013173322 
   10.250003 0.00013619831 
   10.252503 0.00014081474 
   10.255003 0.00014558764 
   10.257503 0.00015052232 
   10.260003 0.00015562425 
   10.262503 0.00016089912 
   10.265003 0.00016635278 
   10.267503 0.00017199128 
   10.270003 0.0001778209 
   10.272504 0.00018384812 
   10.275004 0.00019007962 
   10.277504 0.00019652234 
   10.280004 0.00020318343 
   10.282504 0.0002100703 
   10.285004 0.00021719059 
   10.287505 0.00022455222 
   10.290005 0.00023216338 
   10.292505 0.00024003251 
   10.295005 0.00024816836 
   10.297505 0.00025657997 
   10.300005 0.00026527668 
   10.302506 0.00027426817 
   10.305006 0.00028356442 
   10.307506 0.00029317576 
   10.310006 0.00030311287 
   10.312506 0.00031338679 
   10.315007 0.00032400894 
   10.317507 0.00033499112 
   10.320007 0.00034634554 
   10.322507 0.0003580848 
   10.325008 0.00037022196 
   10.327508 0.0003827705 
   10.330008 0.00039574435 
   10.332509 0.00040915795 
   10.335009 0.00042302619 
   10.337509 0.00043736448 
    10.34001 0.00045218875 
    10.34251 0.00046751548 
    10.34501 0.00048336169 
   10.347511 0.00049974499 
   10.350011 0.00051668359 
   10.352511 0.0005341963 
   10.355012 0.00055230258 
   10.357512 0.00057102255 
   10.360013 0.00059037702 
   10.362513 0.00061038748 
   10.365014 0.00063107616 
   10.367514 0.00065246606 
   10.370015 0.00067458094 
   10.372515 0.00069744537 
   10.375016 0.00072108476 
   10.377516 0.00074552536 
   10.380017 0.00077079434 
   10.382517 0.00079691977 
   10.385018 0.00082393067 
   10.387518 0.00085185706 
   10.390019 0.00088072995 
    10.39252 0.00091058144 
    10.39502 0.00094144469 
   10.397521 0.00097335397 
   10.400022 0.0010063448 
   10.402523 0.0010404537 
   10.405024 0.0010757187 
   10.407524 0.0011121789 
   10.410025 0.0011498748 
   10.412526 0.0011888483 
   10.415027 0.0012291427 
   10.417528 0.0012708028 
   10.420029 0.0013138749 
    10.42253 0.0013584067 
   10.425031 0.0014044478 
   10.427532 0.0014520494 
   10.430033 0.0015012642 
   10.432534  0.001552147 
   10.435035 0.0016047543 
   10.437537 0.0016591445 
   10.440038 0.0017153781 
   10.442539 0.0017735175 
    10.44504 0.0018336273 
   10.447542 0.0018957742 
   10.450043 0.0019600274 
   10.452545 0.0020264581 
   10.455046 0.0020951402 
   10.457548   0.00216615 
    10.46005 0.0022395663 
   10.462551 0.0023154706 
   10.465053 0.0023939473 
   10.467555 0.0024750836 
   10.470057 0.0025589695 
   10.472559 0.0026456982 
   10.475061  0.002735366 
   10.477563 0.0028280726 
   10.480065 0.0029239209 
   10.482567 0.0030230173 
    10.48507 0.0031254719 
   10.487572 0.0032313984 
   10.490074 0.0033409146 
   10.492577 0.0034541419 
    10.49508 0.0035712062 
   10.497582 0.0036922374 
   10.500085 0.0038173699 
   10.502588 0.0039467427 
   10.505091 0.0040804993 
   10.507594 0.0042187884 
   10.510097 0.0043617635 
   10.512601 0.0045095832 
   10.515104 0.0046624117 
   10.517608 0.0048204187 
   10.520111 0.0049837796 
   10.522615 0.0051526756 
   10.525119 0.0053272944 
   10.527623 0.0055078297 
   10.530127 0.0056944819 
   10.532632 0.0058874582 
   10.535136 0.0060869727 
   10.537641  0.006293247 
   10.540146 0.0065065098 
    10.54265  0.006726998 
   10.545156 0.0069549561 
   10.547661  0.007190637 
   10.550166 0.0074343024 
   10.552672 0.0076862226 
   10.555178  0.007946677 
   10.557684 0.0082159546 
    10.56019 0.0084943541 
   10.562697 0.0087821843 
   10.565203 0.0090797646 
    10.56771 0.0093874249 
   10.570217 0.0097055064 
   10.572725  0.010034362 
   10.575233  0.010374356 
    10.57774  0.010725866 
   10.580249  0.011089281 
   10.582757  0.011465005 
   10.585266  0.011853453 
   10.587775  0.012255057 
   10.590284  0.012670261 
   10.592794  0.013099526 
   10.595304  0.013543327 
   10.597814  0.014002156 
   10.600325  0.014476521 
   10.602836  0.014966948 
   10.605347  0.015473981 
   10.607859   0.01599818 
   10.610371  0.016540126 
   10.612884   0.01710042 
   10.615397  0.017679681 
    10.61791  0.018278551 
   10.620424  0.018897692 
   10.622939   0.01953779 
   10.625454  0.020199553 
   10.627969  0.020883714 
   10.630485  0.021591028 
   10.633001  0.022322278 
   10.635518  0.023078273 
   10.638036  0.023859849 
   10.640554  0.024667868 
   10.643073  0.025503225 
   10.645593  0.026366842 
   10.648113  0.027259673 
   10.650633  0.028182704 
   10.653155  0.029136955 
   10.655677  0.030123478 
     10.6582  0.031143362 
   10.660724  0.032197732 
   10.663248  0.033287752 
   10.665774  0.034414623 
     10.6683  0.035579586 
   10.670827  0.036783927 
   10.673355   0.03802897 
   10.675884  0.039316089 
   10.678414  0.040646698 
   10.680945  0.042022262 
   10.683477  0.043444295 
   10.686011  0.044914359 
   10.688545   0.04643407 
    10.69108  0.048005098 
   10.693617  0.049629167 
   10.696155  0.051308059 
   10.698694  0.053043617 
   10.701234  0.054837741 
   10.703776  0.056692399 
    10.70632  0.058609621 
   10.708864  0.060591504 
   10.711411  0.062640216 
   10.713958  0.064757995 
   10.716508  0.066947155 
   10.719059  0.069210084 
   10.721612  0.071549249 
   10.724166  0.073967199 
   10.726723  0.076466565 
   10.729281  0.079050065 
   10.731842  0.081720507 
   10.734404  0.084480787 
   10.736969    0.0873339 
   10.739535  0.090282934 
   10.742104  0.093331079 
   10.744676   0.09648163 
   10.747249  0.099737984 
   10.749825   0.10310365 
   10.752404   0.10658225 
   10.754986   0.11017752 
    10.75757   0.11389332 
   10.760157   0.11773363 
   10.762747   0.12170254 
    10.76534   0.12580431 
   10.767936   0.13004328 
   10.770536   0.13442398 
   10.773138   0.13895104 
   10.775745   0.14362925 
   10.778354   0.14846355 
   10.780968   0.15345902 
   10.783585   0.15862092 
   10.786207   0.16395465 
   10.788832   0.16946576 
   10.791462   0.17516001 
   10.794096   0.18104327 
   10.796735   0.18712165 
   10.799378   0.19340139 
   10.802026   0.19988892 
   10.804679   0.20659087 
   10.807337   0.21351406 
   10.810001   0.22066547 
    10.81267   0.22805231 
   10.815345   0.23568196 
   10.818026   0.24356203 
   10.820713    0.2517003 
   10.823406   0.26010476 
   10.826105   0.26878363 
   10.828812   0.27774532 
   10.831525   0.28699843 
   10.834245    0.2965518 
   10.836973   0.30641445 
   10.839709   0.31659563 
   10.842452   0.32710478 
   10.845204   0.33795153 
   10.847964   0.34914573 
   10.850733   0.36069742 
   10.853511   0.37261683 
   10.856298   0.38491435 
   10.859094   0.39760056 
   10.861901   0.41068622 
   10.864718   0.42418221 
   10.867546   0.43809958 
   10.870384   0.45244947 
   10.873234   0.46724318 
   10.876095   0.48249205 
   10.878969   0.49820751 
   10.881855   0.51440105 
   10.884754   0.53108416 
   10.887666   0.54826832 
   10.890592   0.56596498 
   10.893532    0.5841855 
   10.896487   0.60294114 
   10.899456   0.62224297 
   10.902442   0.64210189 
   10.905443   0.66252852 
   10.908461   0.68353317 
   10.911496   0.70512579 
   10.914548   0.72731588 
   10.917619   0.75011246 
   10.920709   0.77352394 
   10.923817    0.7975581 
   10.926946   0.82222197 
   10.930096   0.84752177 
   10.933266   0.87346278 
   10.936459   0.90004927 
   10.939673    0.9272844 
   10.942911   0.95517011 
   10.946173   0.98370699 
    10.94946    1.0128942 
   10.952772    1.0427293 
    10.95611    1.0732083 
   10.959474    1.1043253 
   10.962867    1.1360724 
   10.966288      1.16844 
   10.969738    1.2014159 
   10.973218    1.2349862 
   10.976728    1.2691341 
   10.980271    1.3038407 
   10.983846    1.3390846 
   10.987455    1.3748416 
   10.991098    1.4110848 
   10.994776    1.4477849 
   10.998491    1.4849096 
   11.002243     1.522424 
   11.006032    1.5602903 
   11.009861    1.5984682 
    11.01373    1.6369147 
   11.017639    1.6755842 
   11.021591     1.714429 
   11.025585    1.7533987 
   11.029623    1.7924412 
   11.033706    1.8315023 
   11.037835    1.8705264 
   11.042011    1.9094564 
   11.046234    1.9482341 
   11.050506    1.9868007 
   11.054828     2.025097 
     11.0592    2.0630637 
   11.063624    2.1006419 
     11.0681    2.1377735 
    11.07263    2.1744013 
   11.077214    2.2104699 
   11.081854    2.2459255 
   11.086549    2.2807167 
   11.091302    2.3147948 
   11.096112    2.3481139 
   11.100982    2.3806313 
    11.10591    2.4123081 
   11.110899    2.4431087 
   11.115949    2.4730019 
   11.121061    2.5019603 
   11.126236    2.5299607 
   11.131473    2.5569844 
   11.136775    2.5830168 
   11.142141    2.6080477 
   11.147573    2.6320709 
    11.15307    2.6550844 
   11.158634    2.6770904 
   11.164264    2.6980945 
   11.169962    2.7181061 
   11.175728     2.737138 
   11.181562     2.755206 
   11.187466    2.7723287 
   11.193438    2.7885275 
    11.19948    2.8038259 
   11.205593    2.8182494 
   11.211775    2.8318252 
   11.218029    2.8445822 
   11.224354    2.8565501 
    11.23075    2.8677597 
   11.237218    2.8782424 
   11.243758    2.8880302 
    11.25037    2.8971549 
   11.257054    2.9056486 
   11.263811    2.9135431 
   11.270641      2.92087 
   11.277544    2.9276602 
    11.28452    2.9339439 
   11.291569    2.9397508 
   11.298692    2.9451097 
   11.305889    2.9500482 
   11.313159    2.9545933 
   11.320503    2.9587706 
   11.327922     2.962605 
   11.335414    2.9661199 
    11.34298    2.9693379 
   11.350621    2.9722804 
   11.358336    2.9749674 
   11.366125    2.9774182 
   11.373989    2.9796507 
   11.381927     2.981682 
    11.38994    2.9835279 
   11.398027    2.9852034 
   11.406189    2.9867224 
   11.414426    2.9880979 
   11.422737     2.989342 
   11.431123    2.9904659 
   11.439584    2.9914801 
    11.44812    2.9923943 
    11.45673    2.9932173 
   11.465415    2.9939575 
   11.474175    2.9946224 
    11.48301    2.9952191 
    11.49192    2.9957538 
   11.500905    2.9962326 
   11.509965    2.9966608 
   11.519099    2.9970433 
   11.528309    2.9973847 
   11.537593     2.997689 
   11.546953    2.9979599 
   11.556387    2.9982009 
   11.565896     2.998415 
    11.57548    2.9986051 
    11.58514    2.9987736 
   11.594874    2.9989228 
   11.604683    2.9990548 
   11.614567    2.9991715 
   11.624526    2.9992745 
    11.63456    2.9993653 
   11.644669    2.9994453 
   11.654854    2.9995158 
   11.665113    2.9995777 
   11.675447     2.999632 
   11.685856    2.9996797 
    11.69634    2.9997215 
   11.706899    2.9997581 
   11.717533      2.99979 
   11.728242     2.999818 
   11.739026    2.9998423 
   11.749885    2.9998636 
   11.760819    2.9998821 
   11.771828    2.9998982 
   11.782912    2.9999122 
   11.794071    2.9999243 
   11.805305    2.9999348 
   11.816614     2.999944 
   11.827998    2.9999519 
   11.839457    2.9999587 
   11.850991    2.9999646 
     11.8626    2.9999697 
   11.874284     2.999974 
   11.886043    2.9999778 
   11.897877     2.999981 
   11.909786    2.9999838 
    11.92177    2.9999862 
   11.933828    2.9999883 
   11.945962      2.99999 
   11.958171    2.9999915 
   11.970455    2.9999928 
   11.982814    2.9999939 
   11.995248    2.9999948 
   12.007757    2.9999956 
   12.020341    2.9999963 
      12.033    2.9999969 
   12.045734    2.9999974 
   12.058543    2.9999978 
   12.071427    2.9999981 
   12.084386    2.9999984 
    12.09742    2.9999987 
   12.110529    2.9999989 
   12.123713    2.9999991 
   12.136972    2.9999992 
   12.150306    2.9999993 
   12.163715    2.9999995 
   12.177199    2.9999995 
   12.190758    2.9999996 
   12.204392    2.9999997 
   12.218101    2.9999997 
   12.231885    2.9999998 
   12.245744    2.9999998 
   12.259678    2.9999998 
   12.273687    2.9999999 
   12.287771    2.9999999 
    12.30193    2.9999999 
   12.316164    2.9999999 
   12.330473    2.9999999 
   12.344857            3 
   12.359316            3 
    12.37385            3 
   12.388459            3 
   12.403143            3 
   12.417902            3 
   12.432736            3 
   12.447645            3 
   12.462629            3 
   12.477688            3 
   12.492822            3 
    12.50803            3 
   12.523314            3 
   12.538673            3 
   12.554107            3 
   12.569616            3 
     12.5852            3 
   12.600859            3 
   12.616593            3 
   12.632402            3 
   12.648286            3 
   12.664245            3 
   12.680279            3 
   12.696388            3 
   12.712572            3 
   12.728831            3 
   12.745165            3 
   12.761574            3 
   12.778058            3 
   12.794617            3 
   12.811251            3 
    12.82796            3 
   12.844744            3 
   12.861603            3 
   12.878537            3 
   12.895546            3 
    12.91263            3 
   12.929789            3 
   12.947023            3 
   12.964332            3 
   12.981716            3 
   12.999175            3 
   13.016709            3 
   13.034318            3 
   13.052002            3 
   13.069761            3 
   13.087595            3 
   13.105504            3 
   13.123488            3 
   13.141547            3 
   13.159681            3 
    13.17789            3 
   13.196173            3 
   13.214532            3 
   13.232966            3 
   13.251475            3 
   13.270059            3 
   13.288718            3 
   13.307452            3 
   13.326261            3 
   13.345145            3 
   13.364104            3 
   13.383138            3 
   13.402247            3 
   13.421431            3 
    13.44069            3 
   13.460024            3 
   13.479433            3 
   13.498917            3 
   13.518476            3 
    13.53811            3 
   13.557819            3 
   13.577603            3 
   13.597462            3 
   13.617396            3 
   13.637405            3 
   13.657489            3 
   13.677648            3 
   13.697882            3 
   13.718191            3 
   13.738575            3 
   13.759034            3 
   13.779568            3 
   13.800177            3 
   13.820861            3 
    13.84162            3 
   13.862454            3 
   13.883363            3 
   13.904347            3 
   13.925406            3 
    13.94654            3 
   13.967749            3 
   13.989033            3 
   14.010391            3 
   14.031825            3 
   14.053334            3 
   14.074918            3 
   14.096577            3 
   14.118311            3 
    14.14012            3 
   14.162004            3 
   14.183963            3 
   14.205997            3 
   14.228106            3 
    14.25029            3 
   14.272549            3 
   14.294883            3 
   14.317292            3 
   14.339776            3 
   14.362335            3 
   14.384969            3 
   14.407678            3 
   14.430462            3 
   14.453321            3 
   14.476255            3 
   14.499264            3 
   14.522348            3 
   14.545507            3 
   14.568741            3 
    14.59205            3 
   14.615434            3 
   14.638893            3 
   14.662427            3 
   14.686036            3 
    14.70972            3 
   14.733479            3 
   14.757313            3 
   14.781222            3 
   14.805206            3 
   14.829265            3 
   14.853399            3 
   14.877608            3 
   14.901892            3 
   14.926251            3 
   14.950685            3 
   14.975193            3 
   14.999777            3 
   15.024436            3 
    15.04917            3 
   15.073979            3 
   15.098863            3 
   15.123822            3 
   15.148856            3 
   15.173965            3 
   15.199149            3 
   15.224408            3 
   15.249742            3 
   15.275151            3 
   15.300635            3 
   15.326194            3 
   15.351828            3 
   15.377537            3 
   15.403321            3 
    15.42918            3 
   15.455114            3 
   15.481123            3 
   15.507207            3 
   15.533366            3 
     15.5596            3 
   15.585909            3 
   15.612293            3 
   15.638752            3 
   15.665286            3 
   15.691895            3 
   15.718579            3 
   15.745338            3 
   15.772172            3 
   15.799081            3 
   15.826065            3 
   15.853124            3 
   15.880258            3 
   15.907467            3 
   15.934751            3 
    15.96211            3 
   15.989544            3 
   16.017053            3 
   16.044636            3 
   16.072295            3 
   16.100029            3 
   16.127838            3 
   16.155722            3 
   16.183681            3 
   16.211715            3 
   16.239824            3 
   16.268008            3 
   16.296267            3 
   16.324601            3 
    16.35301            3 
   16.381494            3 
   16.410053            3 
   16.438687            3 
   16.467396            3 
    16.49618            3 
   16.525039            3 
   16.553973            3 
   16.582982            3 
   16.612066            3 
   16.641225            3 
   16.670459            3 
   16.699768            3 
   16.729152            3 
   16.758611            3 
   16.788145            3 
   16.817754            3 
   16.847438            3 
   16.877197            3 
   16.907031            3 
    16.93694            3 
   16.966924            3 
   16.996983            3 
   17.027117            3 
   17.057326            3 
    17.08761            3 
   17.117969            3 
   17.148403            3 
   17.178912            3 
   17.209496            3 
   17.240154            3 
   17.270888            3 
   17.301697            3 
   17.332581            3 
    17.36354            3 
   17.394574            3 
   17.425683            3 
   17.456867            3 
   17.488126            3 
    17.51946            3 
   17.550869            3 
   17.582353            3 
   17.613912            3 
   17.645546            3 
   17.677255    2.9999999 
   17.709039    2.9999999 
   17.740898    2.9999998 
   17.772832    2.9999998 
   17.804841    2.9999996 
   17.836925    2.9999994 
   17.869084    2.9999992 
   17.901318    2.9999987 
   17.933627     2.999998 
   17.966011    2.9999969 
    17.99847    2.9999952 
   18.031004    2.9999927 
   18.063613    2.9999887 
   18.096297    2.9999825 
   18.129056    2.9999728 
    18.16189    2.9999579 
   18.194799    2.9999348 
   18.227783    2.9998987 
   18.260842    2.9998426 
   18.293976    2.9997552 
   18.327185    2.9996189 
   18.360469     2.999406 
   18.393828    2.9990734 
   18.427261    2.9985532 
    18.46077    2.9977388 
   18.494354    2.9964631 
   18.528013    2.9944635 
   18.561746    2.9913281 
   18.595555    2.9864115 
   18.629438    2.9787062 
   18.663395    2.9666477 
   18.697427    2.9478295 
   18.731532    2.9186067 
   18.765711    2.8735985 
   18.799961    2.8051875 
   18.834281    2.7033207 
   18.868669    2.5562666 
   18.903121    2.3533156 
   18.937631     2.090067 
   18.972194    1.7749148 
   19.006802    1.4320307 
   19.041445    1.0957876 
   19.076115   0.79808493 
   19.110805    0.5574585 
    19.14551   0.37690049 
   19.180224   0.24883704 
   19.214944   0.16159356 
   19.249668   0.10377878 
   19.284394  0.066164486 
   19.319122  0.041984825 
   19.353852  0.026561197 
   19.388582   0.01677135 
   19.423312  0.010576921 
   19.458043  0.006665244 
   19.492774 0.0041981868 
   19.527505 0.0026434701 
   19.562236 0.0016641911 
   19.596967 0.0010475607 
   19.631698 0.00065935899 
   19.666429 0.00041499585 
    19.70116 0.0002611875 
   19.735891 0.00016438143 
   19.770622 0.00010345414 
   19.805353 6.5108807e-05 
   19.840084 4.0975997e-05 
   19.874815 2.5788021e-05 
   19.909546 1.622952e-05 
   19.944278 1.0213929e-05 
   19.979009 6.428056e-06 
    20.01374 4.0454448e-06 
   20.048471 2.545967e-06 
   20.083202 1.6022829e-06 
   20.117933 1.0083831e-06 
   20.152664 6.3461726e-07 
   20.187395 3.9939092e-07 
   20.222126 2.5135324e-07 
   20.256858 1.5818699e-07 
   20.291589 9.9553621e-08 
    20.32632 6.2653212e-08 
   20.361051 3.9430258e-08 
   20.395782 2.4815092e-08 
   20.430513 1.5617164e-08 
   20.465244 9.8285273e-09 
   20.499975 6.1854988e-09 
   20.534706 3.8927903e-09 
   20.569438 2.449894e-09 
   20.604169 1.5418195e-09 
     20.6389 9.7033082e-10 
   20.673631 6.1066935e-10 
   20.708362 3.8431941e-10 
   20.743093 2.4186819e-10 
   20.777824 1.5221757e-10 
   20.812555 9.579687e-11 
   20.847286 6.0288941e-11 
   20.882017 3.7942316e-11 
   20.916749 2.3878732e-11 
    20.95148 1.5027812e-11 
   20.986211 9.4576014e-12 
   21.020942 5.9520722e-12 
   21.055673 3.745837e-12 
   21.090404 2.3574476e-12 
   21.125135 1.4836465e-12 
   21.159866 9.3375307e-13 
   21.194597 5.8769656e-13 
   21.229329 3.698708e-13 
    21.26406 2.3281377e-13 
   21.298791 1.4654944e-13 
   21.333522 9.2259533e-14 
   21.368253 5.7953642e-14 
   21.402984 3.6470826e-14 
   21.437715 2.2981617e-14 
   21.472446 1.448841e-14 
   21.507177  9.15934e-15 
   21.541909 5.6621374e-15 
    21.57664 3.663736e-15 
   21.611371 2.3314684e-15 
   21.646102 1.4988011e-15 
   21.680833 8.3266727e-16 
   21.715564 4.9960036e-16 
   21.750295 3.3306691e-16 
   21.785026 1.6653345e-16 
   21.819757 1.6653345e-16 
   21.854489 1.6653345e-16 
    21.88922            0 
   21.923951            0 
   21.958682            0 
   21.993413            0 
   22.028144            0 
   22.062875            0 
   22.097606            0 
   22.132337            0 
   22.167069            0 
     22.2018            0 
   22.236531            0 
   22.271262            0 
   22.305993            0 
   22.340724            0 
   22.375455            0 
   22.410186            0 
   22.444917            0 
   22.479649            0 
    22.51438            0 
   22.549111            0 
   22.583842            0 
   22.618573            0 
   22.653304            0 
   22.688035            0 
   22.722766            0 
   22.757497            0 
   22.792229            0 
    22.82696            0 
   22.861691            0 
   22.896422            0 
   22.931153            0 
   22.965884            0 
   23.000615            0 
   23.035346            0 
   23.070077            0 
   23.104809            0 
    23.13954            0 
   23.174271            0 
   23.209002            0 
   23.243733            0 
   23.278464            0 
   23.313195            0 
   23.347926            0 
   23.382657            0 
   23.417389            0 
    23.45212            0 
   23.486851            0 
   23.521582            0 
   23.556313            0 
   23.591044            0 
   23.625775            0 
   23.660506            0 
   23.695237            0 
   23.729968            0 
     23.7647            0 
   23.799431            0 
   23.834162            0 
   23.868893            0 
   23.903624            0 
   23.938355            0 
   23.973086            0 
   24.007817            0 
   24.042548            0 
    24.07728            0 
   24.112011            0 
   24.146742            0 
   24.181473            0 
   24.216204            0 
   24.250935            0 
   24.285666            0 
   24.320397            0 
   24.355128            0 
    24.38986            0 
   24.424591            0 
   24.459322            0 
   24.494053            0 
   24.528784            0 
   24.563515            0 
   24.598246            0 
   24.632977            0 
   24.667708            0 
    24.70244            0 
   24.737171            0 
   24.771902            0 
   24.806633            0 
   24.841364            0 
   24.876095            0 
   24.910826            0 
   24.945557            0 
   24.980288            0 
    25.01502            0 
   25.049751            0 
   25.084482            0 
   25.119213            0 
   25.153944            0 
   25.188675            0 
   25.223406            0 
   25.258137            0 
   25.292868            0 
     25.3276            0 
   25.362331            0 
   25.397062            0 
   25.431793            0 
   25.466524            0 
   25.501255            0 
   25.535986            0 
   25.570717            0 
   25.605448            0 
    25.64018            0 
   25.674911            0 
   25.709642            0 
   25.744373            0 
   25.779104            0 
   25.813835            0 
   25.848566            0 
   25.883297            0 
   25.918028            0 
    25.95276            0 
   25.987491            0 
   26.022222            0 
   26.056953            0 
   26.091684            0 
   26.126415            0 
   26.161146            0 
   26.195877            0 
   26.230608            0 
   26.265339            0 
   26.300071            0 
   26.334802            0 
   26.369533            0 
   26.404264            0 
   26.438995            0 
   26.473726            0 
   26.508457            0 
   26.543188            0 
   26.577919            0 
   26.612651            0 
   26.647382            0 
   26.682113            0 
   26.716844            0 
   26.751575            0 
   26.786306            0 
   26.821037            0 
   26.855768            0 
   26.890499            0 
   26.925231            0 
   26.959962            0 
   26.994693            0 
   27.029424            0 
   27.064155            0 
   27.098886            0 
   27.133617            0 
   27.168348            0 
   27.203079            0 
   27.237811            0 
   27.272542            0 
   27.307273            0 
   27.342004            0 
   27.376735            0 
   27.411466            0 
   27.446197            0 
   27.480928            0 
   27.515659            0 
   27.550391            0 
   27.585122            0 
   27.619853            0 
   27.654584            0 
   27.689315            0 
   27.724046            0 
   27.758777            0 
   27.793508            0 
   27.828239            0 
   27.862971            0 
   27.897702            0 
   27.932433            0 
   27.967164            0 
   28.001895            0 
   28.036626            0 
   28.071357            0 
   28.106088            0 
   28.140819            0 
   28.175551            0 
   28.210282            0 
   28.245013            0 
   28.279744            0 
   28.314475            0 
   28.349206            0 
   28.383937            0 
   28.418668            0 
   28.453399            0 
   28.488131            0 
   28.522862            0 
   28.557593            0 
   28.592324            0 
   28.627055            0 
   28.661786            0 
   28.696517            0 
   28.731248            0 
   28.765979            0 
   28.800711            0 
   28.835442            0 
   28.870173            0 
   28.904904            0 
   28.939635            0 
   28.974366            0 
   29.009097            0 
   29.043828            0 
   29.078559            0 
    29.11329            0 
   29.148022            0 
   29.182753            0 
   29.217484            0 
   29.252215            0 
   29.286946            0 
   29.321677            0 
   29.356408            0 
   29.391139            0 
    29.42587            0 
   29.460602            0 
   29.495333            0 
   29.530064            0 
   29.564795            0 
   29.599526            0 
   29.634257            0 
   29.668988            0 
   29.703719            0 
    29.73845            0 
   29.773182            0 
   29.807913            0 
   29.842644            0 
   29.877375            0 
   29.912106            0 
   29.946837            0 
   29.981568            0 
   30.016299            0 
    30.05103            0 
   30.085762            0 
   30.120493            0 
   30.155224            0 
   30.189955            0 
   30.224686            0 
   30.259417            0 
   30.294148            0 
   30.328879            0 
    30.36361            0 
   30.398342            0 
   30.433073            0 
   30.467804            0 
   30.502535            0 
   30.537266            0 
   30.571997            0 
   30.606728            0 
   30.641459            0 
    30.67619            0 
   30.710922            0 
   30.745653            0 
   30.780384            0 
   30.815115            0 
   30.849846            0 
   30.884577            0 
   30.919308            0 
   30.954039            0 
    30.98877            0 
   31.023502            0 
   31.058233            0 
   31.092964            0 
   31.127695            0 
   31.162426            0 
   31.197157            0 
   31.231888            0 
   31.266619            0 
    31.30135            0 
   31.336082            0 
   31.370813            0 
   31.405544            0 
   31.440275            0 
   31.475006            0 
   31.509737            0 
   31.544468            0 
   31.579199            0 
    31.61393            0 
   31.648662            0 
   31.683393            0 
   31.718124            0 
   31.752855            0 
   31.787586            0 
   31.822317            0 
   31.857048            0 
   31.891779            0 
    31.92651            0 
   31.961241            0 
   31.995973            0 
   32.030704            0 
   32.065435            0 
   32.100166            0 
   32.134897            0 
   32.169628            0 
   32.204359            0 
    32.23909            0 
   32.273821            0 
   32.308553            0 
   32.343284            0 
   32.378015            0 
   32.412746            0 
   32.447477            0 
   32.482208            0 
   32.516939            0 
    32.55167            0 
   32.586401            0 
   32.621133            0 
   32.655864            0 
   32.690595            0 
   32.725326            0 
   32.760057            0 
   32.794788            0 
   32.829519            0 
    32.86425            0 
   32.898981            0 
   32.933713            0 
   32.968444            0 
   33.003175            0 
   33.037906            0 
   33.072637            0 
   33.107368            0 
   33.142099            0 
    33.17683            0 
   33.211561            0 
   33.246293            0 
   33.281024            0 
   33.315755            0 
   33.350486            0 
   33.385217            0 
   33.419948            0 
   33.454679            0 
    33.48941            0 
   33.524141            0 
   33.558873            0 
   33.593604            0 
   33.628335            0 
   33.663066            0 
   33.697797            0 
   33.732528            0 
   33.767259            0 
    33.80199            0 
   33.836721            0 
   33.871453            0 
   33.906184            0 
   33.940915            0 
   33.975646            0 
   34.010377            0 
   34.045108            0 
   34.079839            0 
    34.11457            0 
   34.149301            0 
   34.184033            0 
   34.218764            0 
   34.253495            0 
   34.288226            0 
   34.322957            0 
   34.357688            0 
   34.392419            0 
    34.42715            0 
   34.461881            0 
   34.496612            0 
   34.531344            0 
   34.566075            0 
   34.600806            0 
   34.635537            0 
   34.670268            0 
   34.704999            0 
    34.73973            0 
   34.774461            0 
   34.809192            0 
   34.843924            0 
   34.878655            0 
   34.913386            0 
   34.948117            0 
   34.982848            0 
   35.017579            0 
    35.05231            0 
   35.087041            0 
   35.121772            0 
   35.156504            0 
   35.191235            0 
   35.225966            0 
   35.260697            0 
   35.295428            0 
   35.330159            0 
    35.36489            0 
   35.399621            0 
   35.434352            0 
   35.469084            0 
   35.503815            0 
   35.538546            0 
   35.573277            0 
   35.608008            0 
   35.642739            0 
    35.67747            0 
   35.712201            0 
   35.746932            0 
   35.781664            0 
   35.816395            0 
   35.851126            0 
   35.885857            0 
   35.920588            0 
   35.955319            0 
    35.99005            0 
   36.024781            0 
   36.059512            0 
   36.094244            0 
   36.128975            0 
   36.163706            0 
   36.198437            0 
   36.233168            0 
   36.267899            0 
    36.30263            0 
   36.337361            0 
   36.372092            0 
   36.406824            0 
   36.441555            0 
   36.476286            0 
   36.511017            0 
   36.545748            0 
   36.580479            0 
    36.61521            0 
   36.649941            0 
   36.684672            0 
   36.719404            0 
   36.754135            0 
   36.788866            0 
   36.823597            0 
   36.858328            0 
   36.893059            0 
    36.92779            0 
   36.962521            0 
   36.997252            0 
   37.031984            0 
   37.066715            0 
   37.101446            0 
   37.136177            0 
   37.170908            0 
   37.205639            0 
    37.24037            0 
   37.275101            0 
   37.309832            0 
   37.344563            0 
   37.379295            0 
   37.414026            0 
   37.448757            0 
   37.483488            0 
   37.518219            0 
    37.55295            0 
   37.587681            0 
   37.622412            0 
   37.657143            0 
   37.691875            0 
   37.726606            0 
   37.761337            0 
   37.796068            0 
   37.830799            0 
    37.86553            0 
   37.900261            0 
   37.934992            0 
   37.969723            0 
   38.004455            0 
   38.039186            0 
   38.073917            0 
   38.108648            0 
   38.143379 1.6653345e-16 
    38.17811 1.6653345e-16 
   38.212841 1.6653345e-16 
   38.247572 3.3306691e-16 
   38.282303 4.9960036e-16 
   38.317035 8.3266727e-16 
   38.351766 1.3322676e-15 
   38.386497 2.1649349e-15 
   38.421228 3.4972025e-15 
   38.455959 5.495604e-15 
    38.49069 8.826273e-15 
   38.525421 1.398881e-14 
   38.560152 2.2315483e-14 
   38.594883 3.5471626e-14 
   38.629615 5.6454841e-14 
   38.664346 8.9594998e-14 
   38.699077 1.423861e-13 
   38.733808 2.2615243e-13 
   38.768539 3.5937919e-13 
    38.80327 5.7120975e-13 
   38.838001 9.0760732e-13 
   38.872732 1.4420132e-12 
   38.907463 2.2913338e-12 
   38.942195 3.6409209e-12 
   38.976926 5.7852056e-12 
   39.011657 9.1924801e-12 
   39.046388 1.4606649e-11 
   39.081119 2.3209268e-11 
    39.11585 3.6878667e-11 
   39.150581 5.8598959e-11 
   39.185312 9.3111518e-11 
   39.220043 1.4795065e-10 
   39.254775 2.3508812e-10 
   39.289506 3.7354636e-10 
   39.324237 5.9355121e-10 
   39.358968 9.4313074e-10 
   39.393699 1.4985996e-09 
    39.42843 2.3812189e-09 
   39.463161 3.7836682e-09 
   39.497892 6.012108e-09 
   39.532623 9.5530157e-09 
   39.567355 1.5179386e-08 
   39.602086 2.411948e-08 
   39.636817 3.8324955e-08 
   39.671548 6.0896927e-08 
   39.706279 9.6762949e-08 
    39.74101 1.5375272e-07 
   39.775741 2.4430735e-07 
   39.810472 3.8819526e-07 
   39.845203 6.1682777e-07 
   39.879935 9.8011625e-07 
   39.914666 1.5573679e-06 
   39.949397 2.4745989e-06 
   39.984128 3.9320437e-06 
   40.018859 6.2478663e-06 
    40.05359 9.9276149e-06 
   40.088321 1.577458e-05 
   40.123052 2.5065143e-05 
   40.157783 3.9827384e-05 
   40.192514 6.3283739e-05 
   40.227246 0.00010055426 
   40.261977 0.00015977384 
   40.296708 0.00025386676 
   40.331439 0.00040336482 
    40.36617 0.00064088116 
   40.400901 0.0010182088 
   40.435632  0.001617574 
   40.470364 0.0025694526 
   40.505095 0.0040807156 
   40.539826 0.0064789384 
   40.574558  0.010281774 
    40.60929  0.016304595 
   40.644022  0.025825108 
   40.678755  0.040829075 
   40.713489  0.064362321 
   40.748224   0.10099891 
   40.782962     0.157377 
   40.817704   0.24260383 
   40.852452   0.36803579 
   40.887209   0.54554443 
    40.92198    0.7832968 
   40.956771    1.0792895 
   40.991588    1.4159681 
   41.026441    1.7617032 
   41.061338    2.0813301 
   41.096287    2.3492984 
   41.131294    2.5560813 
   41.166366    2.7056186 
   41.201505    2.8087175 
   41.236714    2.8774558 
   41.271996    2.9222498 
    41.30735    2.9509962 
   41.342778    2.9692561 
    41.37828    2.9807752 
   41.413857    2.9880077 
   41.449509    2.9925335 
   41.485235    2.9953586 
   41.521037    2.9971187 
   41.556913    2.9982135 
   41.592864    2.9988936 
    41.62889    2.9993155 
   41.664991     2.999577 
   41.701168    2.9997388 
   41.737419    2.9998389 
   41.773745    2.9999008 
   41.810146    2.9999389 
   41.846622    2.9999624 
   41.883173    2.9999769 
   41.919799    2.9999858 
     41.9565    2.9999913 
   41.993276    2.9999947 
   42.030128    2.9999967 
   42.067054     2.999998 
   42.104055    2.9999988 
   42.141131    2.9999993 
   42.178282    2.9999995 
   42.215508    2.9999997 
   42.252809    2.9999998 
   42.290185    2.9999999 
   42.327636    2.9999999 
   42.365163            3 
   42.402764            3 
    42.44044            3 
   42.478191            3 
   42.516017            3 
   42.553918            3 
   42.591894            3 
   42.629945            3 
   42.668071            3 
   42.706273            3 
   42.744549            3 
     42.7829            3 
   42.821326            3 
   42.859827            3 
   42.898403            3 
   42.937054            3 
    42.97578            3 
   43.014581            3 
   43.053458            3 
   43.092409            3 
   43.131435            3 
   43.170536            3 
   43.209712            3 
   43.248963            3 
   43.288289            3 
    43.32769            3 
   43.367166            3 
   43.406718            3 
   43.446344            3 
   43.486045            3 
   43.525821            3 
   43.565672            3 
   43.605598            3 
   43.645599            3 
   43.685675            3 
   43.725826            3 
   43.766053            3 
   43.806354            3 
    43.84673            3 
   43.887181            3 
   43.927707            3 
   43.968308            3 
   44.008984            3 
   44.049735            3 
   44.090561            3 
   44.131463            3 
   44.172439            3 
    44.21349            3 
   44.254616            3 
   44.295817            3 
   44.337093            3 
   44.378444            3 
    44.41987            3 
   44.461371            3 
   44.502948            3 
   44.544599            3 
   44.586325            3 
   44.628126            3 
   44.670002            3 
   44.711953            3 
   44.753979            3 
    44.79608            3 
   44.838256            3 
   44.880508            3 
   44.922834            3 
   44.965235            3 
   45.007711            3 
   45.050262            3 
   45.092888            3 
   45.135589            3 
   45.178365            3 
   45.221216            3 
   45.264143            3 
   45.307144            3 
    45.35022            3 
   45.393371            3 
   45.436597            3 
   45.479898            3 
   45.523274            3 
   45.566725            3 
   45.610251            3 
   45.653853            3 
   45.697529            3 
    45.74128            3 
   45.785106            3 
   45.829007            3 
   45.872983            3 
   45.917034            3 
    45.96116            3 
   46.005361            3 
   46.049638            3 
   46.093989            3 
   46.138415            3 
   46.182916            3 
   46.227492            3 
   46.272143            3 
   46.316869            3 
    46.36167            3 
   46.406546            3 
   46.451497            3 
   46.496524            3 
   46.541625            3 
   46.586801            3 
   46.632052            3 
   46.677378            3 
   46.722779            3 
   46.768255            3 
   46.813806            3 
   46.859432            3 
   46.905134            3 
    46.95091            3 
   46.996761            3 
   47.042687            3 
   47.088688            3 
   47.134764            3 
   47.180915            3 
   47.227141            3 
   47.273442            3 
   47.319819            3 
    47.36627            3 
   47.412796            3 
   47.459397            3 
   47.506073            3 
   47.552824            3 
    47.59965            3 
   47.646551            3 
   47.693527    2.9999999 
   47.740579    2.9999998 
   47.787705    2.9999997 
   47.834906    2.9999995 
   47.882182     2.999999 
   47.929533    2.9999981 
   47.976959    2.9999964 
    48.02446    2.9999933 
   48.072036    2.9999873 
   48.119687     2.999976 
   48.167414    2.9999547 
   48.215215    2.9999143 
   48.263091    2.9998378 
   48.311042    2.9996927 
   48.359068     2.999417 
   48.407169    2.9988931 
   48.455345    2.9978965 
   48.503596    2.9959999 
   48.551922    2.9923901 
   48.600323    2.9855239 
   48.648798    2.9724924 
   48.697348    2.9478836 
   48.745971    2.9018923 
   48.794667    2.8176573 
   48.843433    2.6690632 
   48.892266    2.4237119 
    48.94116    2.0599683 
   48.990105    1.5988042 
    49.03909    1.1177114 
   49.088103   0.70801254 
   49.137134   0.41526675 
   49.186175   0.23131686 
   49.235222   0.12490377 
   49.284272  0.066269607 
   49.333324  0.034826176 
   49.382377  0.018209131 
    49.43143 0.0094953349 
   49.480483 0.0049445078 
   49.529536 0.0025728739 
    49.57859 0.0013382851 
   49.627643 0.00069597361 
   49.676697 0.00036190297 
    49.72575 0.00018817774 
   49.774804 9.7843563e-05 
   49.823858 5.0873308e-05 
   49.872911 2.6451141e-05 
   49.921965 1.3752991e-05 
   49.971018 7.1507075e-06 
   50.020072 3.7179232e-06 
   50.069125 1.9330877e-06 
   50.118179 1.0050846e-06 
   50.167232 5.2258094e-07 
   50.216286 2.717093e-07 
   50.265339 1.4127178e-07 
   50.314393 7.3452458e-08 
   50.363447 3.8190666e-08 
     50.4125 1.9856749e-08 
   50.461554 1.0324262e-08 
   50.510607 5.3679682e-09 
   50.559661 2.7910064e-09 
   50.608714 1.451148e-09 
   50.657768 7.5450596e-10 
   50.706821 3.922957e-10 
   50.755875 2.0396917e-10 
   50.804928 1.0605117e-10 
   50.853982 5.5139893e-11 
   50.903035 2.8669234e-11 
   50.952089 1.4906243e-11 
   51.001143 7.7503004e-12 
   51.050196  4.02961e-12 
    51.09925 2.0951574e-12 
   51.148303 1.0892953e-12 
   51.197357 5.6638028e-13 
    51.24641 2.9443115e-13 
   51.295464 1.5304424e-13 
   51.344517 7.9602991e-14 
   51.393571 4.146683e-14 
   51.442624 2.1482816e-14 
   51.491678 1.1157741e-14 
   51.540732 5.8286709e-15 
   51.589785 2.9976022e-15 
   51.638839 1.4988011e-15 
   51.687892 8.3266727e-16 
   51.736946 4.9960036e-16 
   51.785999 1.6653345e-16 
   51.835053 1.6653345e-16 
   51.884106            0 
    51.93316            0 
   51.982213            0 
   52.031267            0 
    52.08032            0 
   52.129374            0 
   52.178428            0 
   52.227481            0 
   52.276535            0 
   52.325588            0 
   52.374642            0 
   52.423695            0 
   52.472749            0 
   52.521802            0 
   52.570856            0 
   52.619909            0 
   52.668963            0 
   52.718017            0 
    52.76707            0 
   52.816124            0 
   52.865177            0 
   52.914231            0 
   52.963284            0 
   53.012338            0 
   53.061391            0 
   53.110445            0 
   53.159498            0 
   53.208552            0 
   53.257605            0 
   53.306659            0 
   53.355713            0 
   53.404766            0 
    53.45382            0 
   53.502873            0 
   53.551927            0 
    53.60098            0 
   53.650034            0 
   53.699087            0 
   53.748141            0 
   53.797194            0 
   53.846248            0 
   53.895302            0 
   53.944355            0 
   53.993409            0 
   54.042462            0 
   54.091516            0 
   54.140569            0 
   54.189623            0 
   54.238676            0 
    54.28773            0 
   54.336783            0 
   54.385837            0 
   54.434891            0 
   54.483944            0 
   54.532998            0 
   54.582051            0 
   54.631105            0 
   54.680158            0 
   54.729212            0 
   54.778265            0 
   54.827319            0 
   54.876372            0 
   54.925426            0 
   54.974479            0 
   55.023533            0 
   55.072587            0 
    55.12164            0 
   55.170694            0 
   55.219747            0 
   55.268801            0 
   55.317854            0 
   55.366908            0 
   55.415961            0 
   55.465015            0 
   55.514068            0 
   55.563122            0 
   55.612176            0 
   55.661229            0 
   55.710283            0 
   55.759336            0 
    55.80839            0 
   55.857443            0 
   55.906497            0 
    55.95555            0 
   56.004604            0 
   56.053657            0 
   56.102711            0 
   56.151764            0 
   56.200818            0 
   56.249872            0 
   56.298925            0 
   56.347979            0 
   56.397032            0 
   56.446086            0 
   56.495139            0 
   56.544193            0 
   56.593246            0 
     56.6423            0 
   56.691353            0 
   56.740407            0 
   56.789461            0 
   56.838514            0 
   56.887568            0 
   56.936621            0 
   56.985675            0 
   57.034728            0 
   57.083782            0 
   57.132835            0 
   57.181889            0 
   57.230942            0 
   57.279996            0 
   57.329049            0 
   57.378103            0 
   57.427157            0 
    57.47621            0 
   57.525264            0 
   57.574317            0 
   57.623371            0 
   57.672424            0 
   57.721478            0 
   57.770531            0 
   57.819585            0 
   57.868638            0 
   57.917692            0 
   57.966746            0 
   58.015799            0 
   58.064853            0 
   58.113906            0 
    58.16296            0 
   58.212013            0 
   58.261067            0 
    58.31012            0 
   58.359174            0 
   58.408227            0 
   58.457281            0 
   58.506334            0 
   58.555388            0 
   58.604442            0 
   58.653495            0 
   58.702549            0 
   58.751602            0 
   58.800656            0 
   58.849709            0 
   58.898763            0 
   58.947816            0 
    58.99687            0 
   59.045923            0 
   59.094977            0 
   59.144031            0 
   59.193084            0 
   59.242138            0 
   59.291191            0 
   59.340245            0 
   59.389298            0 
   59.438352            0 
   59.487405            0 
   59.536459            0 
   59.585512            0 
   59.634566            0 
    59.68362            0 
   59.732673            0 
   59.781727            0 
    59.83078            0 
   59.879834            0 
   59.928887            0 
   59.977941            0 
   60.026994            0 
   60.076048            0 
   60.125101            0 
   60.174155            0 
   60.223208            0 
   60.272262            0 
   60.321316            0 
   60.370369            0 
   60.419423            0 
   60.468476            0 
    60.51753            0 
   60.566583            0 
   60.615637            0 
    60.66469            0 
   60.713744            0 
   60.762797            0 
   60.811851            0 
   60.860905            0 
   60.909958            0 
   60.959012            0 
   61.008065            0 
   61.057119            0 
   61.106172            0 
   61.155226            0 
   61.204279            0 
   61.253333            0 
   61.302386            0 
    61.35144            0 
   61.400493            0 
   61.449547            0 
   61.498601            0 
   61.547654            0 
   61.596708            0 
   61.645761            0 
   61.694815            0 
   61.743868            0 
   61.792922            0 
   61.841975            0 
   61.891029            0 
   61.940082            0 
   61.989136            0 
    62.03819            0 
   62.087243            0 
   62.136297            0 
    62.18535            0 
   62.234404            0 
   62.283457            0 
   62.332511            0 
   62.381564            0 
   62.430618            0 
   62.479671            0 
   62.528725            0 
   62.577778            0 
   62.626832            0 
   62.675886            0 
   62.724939            0 
   62.773993            0 
   62.823046            0 
     62.8721            0 
   62.921153            0 
   62.970207            0 
    63.01926            0 
   63.068314            0 
   63.117367            0 
   63.166421            0 
   63.215475            0 
   63.264528            0 
   63.313582            0 
   63.362635            0 
   63.411689            0 
   63.460742            0 
   63.509796            0 
   63.558849            0 
   63.607903            0 
   63.656956            0 
    63.70601            0 
   63.755063            0 
   63.804117            0 
   63.853171            0 
   63.902224            0 
   63.951278            0 
   64.000331            0 
   64.049385            0 
   64.098438            0 
   64.147492            0 
   64.196545            0 
   64.245599            0 
   64.294652            0 
   64.343706            0 
    64.39276            0 
   64.441813            0 
   64.490867            0 
    64.53992            0 
   64.588974            0 
   64.638027            0 
   64.687081            0 
   64.736134            0 
   64.785188            0 
   64.834241            0 
   64.883295            0 
   64.932348            0 
   64.981402            0 
   65.030456            0 
   65.079509            0 
   65.128563            0 
   65.177616            0 
    65.22667            0 
   65.275723            0 
   65.324777            0 
    65.37383            0 
   65.422884            0 
   65.471937            0 
   65.520991            0 
   65.570045            0 
   65.619098            0 
   65.668152            0 
   65.717205            0 
   65.766259            0 
   65.815312            0 
   65.864366            0 
   65.913419            0 
   65.962473            0 
   66.011526            0 
    66.06058            0 
   66.109634            0 
   66.158687            0 
   66.207741            0 
   66.256794            0 
   66.305848            0 
   66.354901            0 
   66.403955            0 
   66.453008            0 
   66.502062            0 
   66.551115            0 
   66.600169            0 
   66.649222            0 
   66.698276            0 
    66.74733            0 
   66.796383            0 
   66.845437            0 
    66.89449            0 
   66.943544            0 
   66.992597            0 
   67.041651            0 
   67.090704            0 
   67.139758            0 
   67.188811            0 
   67.237865            0 
   67.286919            0 
   67.335972            0 
   67.385026            0 
   67.434079            0 
   67.483133            0 
   67.532186            0 
    67.58124            0 
   67.630293            0 
   67.679347            0 
     67.7284            0 
   67.777454            0 
   67.826507            0 
   67.875561            0 
   67.924615            0 
   67.973668            0 
   68.022722            0 
   68.071775            0 
   68.120829            0 
   68.169882 1.6653345e-16 
   68.218936 1.6653345e-16 
   68.267989 4.9960036e-16 
   68.317043 8.3266727e-16 
   68.366096 1.6653345e-15 
    68.41515 3.1641356e-15 
   68.464204 6.1617378e-15 
   68.513257 1.1990409e-14 
   68.562311 2.2981617e-14 
   68.611364 4.4131365e-14 
   68.660418 8.5098595e-14 
   68.709471 1.6353585e-13 
   68.758525 3.1458169e-13 
   68.807578 6.048495e-13 
   68.856632 1.1634027e-12 
   68.905685  2.23771e-12 
   68.954739 4.303724e-12 
   69.003792 8.2773788e-12 
   69.052846 1.5920099e-11 
     69.1019 3.0619174e-11 
   69.150953 5.8890226e-11 
   69.200007 1.1326406e-10 
    69.24906 2.1784191e-10 
   69.298114 4.1897719e-10 
   69.347167 8.0582274e-10 
   69.396221 1.5498461e-09 
   69.445274 2.9808332e-09 
   69.494328 5.7330639e-09 
   69.543381 1.1026454e-08 
   69.592435 2.1207281e-08 
   69.641489 4.0788157e-08 
   69.690542 7.8448236e-08 
   69.739596 1.5088021e-07 
   69.788649 2.9018927e-07 
   69.837703 5.5812364e-07 
   69.886756 1.0734441e-06 
    69.93581 2.0645642e-06 
   69.984863 3.9707928e-06 
   70.033917 7.6370529e-06 
    70.08297 1.4688379e-05 
   70.132024 2.8250167e-05 
   70.181077 5.4333334e-05 
   70.230131 0.00010449806 
   70.279185 0.00020097562 
   70.328238 0.0003865144 
   70.377292 0.00074329847 
   70.426345 0.0014292665 
   70.475399 0.0027477155 
   70.524453 0.0052802511 
   70.573506  0.010139115 
    70.62256  0.019440127 
   70.671615  0.037167498 
   70.720671  0.070677911 
   70.769728   0.13304778 
   70.818788   0.24584709 
   70.867855   0.43964543 
   70.916933   0.74497655 
   70.966029    1.1659824 
   71.015155    1.6510326 
   71.064321    2.1064885 
   71.113541    2.4589054 
   71.162822    2.6928326 
    71.21217    2.8326582 
   71.261589    2.9110205 
   71.311081    2.9533372 
   71.360646    2.9757207 
   71.410286    2.9874254 
   71.460001    2.9935062 
   71.509791    2.9966531 
   71.559655    2.9982776 
   71.609595    2.9991147 
   71.659609    2.9995455 
   71.709698    2.9997669 
   71.759863    2.9998806 
   71.810102    2.9999389 
   71.860417    2.9999688 
   71.910806     2.999984 
    71.96127    2.9999919 
    72.01181    2.9999958 
   72.062424    2.9999979 
   72.113114    2.9999989 
   72.163878    2.9999995 
   72.214717    2.9999997 
   72.265632    2.9999999 
   72.316621    2.9999999 
   72.367686            3 
   72.418825            3 
   72.470039            3 
   72.521329            3 
   72.572693            3 
   72.624133            3 
   72.675647            3 
   72.727236            3 
   72.778901            3 
    72.83064            3 
   72.882455            3 
   72.934344            3 
   72.986308            3 
   73.038348            3 
   73.090462            3 
   73.142651            3 
   73.194916            3 
   73.247255            3 
    73.29967            3 
   73.352159            3 
   73.404723            3 
   73.457363            3 
   73.510077            3 
   73.562867            3 
   73.615731            3 
    73.66867            3 
   73.721685            3 
   73.774774            3 
   73.827939            3 
   73.881178            3 
   73.934492            3 
   73.987882            3 
   74.041346            3 
   74.094886            3 
     74.1485            3 
   74.202189            3 
   74.255954            3 
   74.309793            3 
   74.363707            3 
   74.417697            3 
   74.471761            3 
   74.525901            3 
   74.580115            3 
   74.634404            3 
   74.688769            3 
   74.743208            3 
   74.797723            3 
   74.852312            3 
   74.906976            3 
   74.961716            3 
    75.01653            3 
    75.07142            3 
   75.126384            3 
   75.181423            3 
   75.236538            3 
   75.291727            3 
   75.346992            3 
   75.402331            3 
   75.457745            3 
   75.513235            3 
   75.568799            3 
   75.624438            3 
   75.680153            3 
   75.735942            3 
   75.791807            3 
   75.847746            3 
    75.90376            3 
    75.95985            3 
   76.016014            3 
   76.072254            3 
   76.128568            3 
   76.184957            3 
   76.241422            3 
   76.297961            3 
   76.354576            3 
   76.411265            3 
   76.468029            3 
   76.524869            3 
   76.581783            3 
   76.638772            3 
   76.695837            3 
   76.752976            3 
   76.810191            3 
    76.86748            3 
   76.924844            3 
   76.982284            3 
   77.039798            3 
   77.097388            3 
   77.155052            3 
   77.212791            3 
   77.270606            3 
   77.328495            3 
    77.38646            3 
   77.444499            3 
   77.502613            3 
   77.560803            3 
   77.619067            3 
   77.677407    2.9999999 
   77.735821    2.9999999 
    77.79431    2.9999997 
   77.852875    2.9999993 
   77.911514    2.9999985 
   77.970228    2.9999967 
   78.029018    2.9999928 
   78.087882    2.9999843 
   78.146822    2.9999656 
   78.205836    2.9999244 
   78.264925    2.9998338 
    78.32409    2.9996343 
   78.383329    2.9991944 
   78.442644     2.998224 
   78.502033    2.9960823 
   78.561497    2.9913568 
   78.621036    2.9809485 
    78.68065    2.9581408 
   78.740337    2.9087762 
   78.800097     2.804856 
   78.859928    2.5985522 
   78.919823    2.2332364 
   78.979774    1.7010434 
   79.039768    1.1113865 
   79.099789   0.62721997 
   79.159826   0.31835604 
   79.219871    0.1518379 
    79.27992  0.070136547 
   79.339971  0.031904085 
   79.400022  0.014410043 
   79.460074 0.0064875517 
   79.520126 0.0029165023 
   79.580178 0.0013102625 
    79.64023 0.00058847219 
   79.700282 0.00026426272 
   79.760334 0.00011866427 
   79.820386 5.3283458e-05 
   79.880438 2.3925422e-05 
    79.94049 1.0742973e-05 
   80.000542 4.8237888e-06 
   80.060594 2.1659659e-06 
   80.120646 9.725563e-07 
   80.180698 4.3669456e-07 
    80.24075 1.9608337e-07 
   80.300802 8.8044805e-08 
   80.360854 3.953363e-08 
   80.420907 1.7751279e-08 
   80.480959 7.9706292e-09 
   80.541011 3.5789495e-09 
   80.601063 1.6070097e-09 
   80.661115 7.2157497e-10 
   80.721167 3.2399949e-10 
   80.781219 1.4548129e-10 
   80.841271 6.532358e-11 
   80.901323 2.9331371e-11 
   80.961375 1.3170298e-11 
   81.021427 5.9137695e-12 
   81.081479 2.6553759e-12 
   81.141531 1.1923795e-12 
   81.201583 5.3540505e-13 
   81.261635 2.4030777e-13 
   81.321687 1.0791368e-13 
    81.38174 4.8461235e-14 
   81.441792 2.1815882e-14 
   81.501844 9.8254738e-15 
   81.561896 4.3298698e-15 
   81.621948 1.9984014e-15 
      81.682 8.3266727e-16 
   81.742052 3.3306691e-16 
   81.802104 1.6653345e-16 
   81.862156            0 
   81.922208            0 
    81.98226            0 
   82.042312            0 
   82.102364            0 
   82.162416            0 
   82.222468            0 
    82.28252            0 
   82.342572            0 
   82.402625            0 
   82.462677            0 
   82.522729            0 
   82.582781            0 
   82.642833            0 
   82.702885            0 
   82.762937            0 
   82.822989            0 
   82.883041            0 
   82.943093            0 
   83.003145            0 
   83.063197            0 
   83.123249            0 
   83.183301            0 
   83.243353            0 
   83.303405            0 
   83.363458            0 
    83.42351            0 
   83.483562            0 
   83.543614            0 
   83.603666            0 
   83.663718            0 
    83.72377            0 
   83.783822            0 
   83.843874            0 
   83.903926            0 
   83.963978            0 
    84.02403            0 
   84.084082            0 
   84.144134            0 
   84.204186            0 
   84.264238            0 
    84.32429            0 
   84.384343            0 
   84.444395            0 
   84.504447            0 
   84.564499            0 
   84.624551            0 
   84.684603            0 
   84.744655            0 
   84.804707            0 
   84.864759            0 
   84.924811            0 
   84.984863            0 
   85.044915            0 
   85.104967            0 
   85.165019            0 
   85.225071            0 
   85.285123            0 
   85.345176            0 
   85.405228            0 
    85.46528            0 
   85.525332            0 
   85.585384            0 
   85.645436            0 
   85.705488            0 
    85.76554            0 
   85.825592            0 
   85.885644            0 
   85.945696            0 
   86.005748            0 
     86.0658            0 
   86.125852            0 
   86.185904            0 
   86.245956            0 
   86.306008            0 
   86.366061            0 
   86.426113            0 
   86.486165            0 
   86.546217            0 
   86.606269            0 
   86.666321            0 
   86.726373            0 
   86.786425            0 
   86.846477            0 
   86.906529            0 
   86.966581            0 
   87.026633            0 
   87.086685            0 
   87.146737            0 
   87.206789            0 
   87.266841            0 
   87.326894            0 
   87.386946            0 
   87.446998            0 
    87.50705            0 
   87.567102            0 
   87.627154            0 
   87.687206            0 
   87.747258            0 
    87.80731            0 
   87.867362            0 
   87.927414            0 
   87.987466            0 
   88.047518            0 
    88.10757            0 
   88.167622            0 
   88.227674            0 
   88.287726            0 
   88.347779            0 
   88.407831            0 
   88.467883            0 
   88.527935            0 
   88.587987            0 
   88.648039            0 
   88.708091            0 
   88.768143            0 
   88.828195            0 
   88.888247            0 
   88.948299            0 
   89.008351            0 
   89.068403            0 
   89.128455            0 
   89.188507            0 
   89.248559            0 
   89.308612            0 
   89.368664            0 
   89.428716            0 
   89.488768            0 
    89.54882            0 
   89.608872            0 
   89.668924            0 
   89.728976            0 
   89.789028            0 
    89.84908            0 
   89.909132            0 
   89.969184            0 
   90.029236            0 
   90.089288            0 
    90.14934            0 
   90.209392            0 
   90.269444            0 
   90.329497            0 
   90.389549            0 
   90.449601            0 
   90.509653            0 
   90.569705            0 
   90.629757            0 
   90.689809            0 
   90.749861            0 
   90.809913            0 
   90.869965            0 
   90.930017            0 
   90.990069            0 
   91.050121            0 
   91.110173            0 
   91.170225            0 
   91.230277            0 
    91.29033            0 
   91.350382            0 
   91.410434            0 
   91.470486            0 
   91.530538            0 
    91.59059            0 
   91.650642            0 
   91.710694            0 
   91.770746            0 
   91.830798            0 
    91.89085            0 
   91.950902            0 
   92.010954            0 
   92.071006            0 
   92.131058            0 
    92.19111            0 
   92.251162            0 
   92.311215            0 
   92.371267            0 
   92.431319            0 
   92.491371            0 
   92.551423            0 
   92.611475            0 
   92.671527            0 
   92.731579            0 
   92.791631            0 
   92.851683            0 
   92.911735            0 
   92.971787            0 
   93.031839            0 
   93.091891            0 
   93.151943            0 
   93.211995            0 
   93.272048            0 
     93.3321            0 
   93.392152            0 
   93.452204            0 
   93.512256            0 
   93.572308            0 
    93.63236            0 
   93.692412            0 
   93.752464            0 
   93.812516            0 
   93.872568            0 
    93.93262            0 
   93.992672            0 
   94.052724            0 
   94.112776            0 
   94.172828            0 
    94.23288            0 
   94.292933            0 
   94.352985            0 
   94.413037            0 
   94.473089            0 
   94.533141            0 
   94.593193            0 
   94.653245            0 
   94.713297            0 
   94.773349            0 
   94.833401            0 
   94.893453            0 
   94.953505            0 
   95.013557            0 
   95.073609            0 
   95.133661            0 
   95.193713            0 
   95.253766            0 
   95.313818            0 
    95.37387            0 
   95.433922            0 
   95.493974            0 
   95.554026            0 
   95.614078            0 
    95.67413            0 
   95.734182            0 
   95.794234            0 
   95.854286            0 
   95.914338            0 
    95.97439            0 
   96.034442            0 
   96.094494            0 
   96.154546            0 
   96.214598            0 
   96.274651            0 
   96.334703            0 
   96.394755            0 
   96.454807            0 
   96.514859            0 
   96.574911            0 
   96.634963            0 
   96.695015            0 
   96.755067            0 
   96.815119            0 
   96.875171            0 
   96.935223            0 
   96.995275            0 
   97.055327            0 
   97.115379            0 
   97.175431            0 
   97.235484            0 
   97.295536            0 
   97.355588            0 
    97.41564            0 
   97.475692            0 
   97.535744            0 
   97.595796            0 
   97.655848            0 
     97.7159            0 
   97.775952            0 
   97.836004            0 
   97.896056            0 
   97.956108            0 
    98.01616            0 
   98.076212            0 
   98.136264            0 
   98.196316 1.6653345e-16 
   98.256369 3.3306691e-16 
   98.316421 8.3266727e-16 
   98.376473 1.9984014e-15 
   98.436525 4.3298698e-15 
   98.496577 9.4924069e-15 
   98.556629 2.1316282e-14 
   98.616681 4.7462034e-14 
   98.676733 1.0574874e-13 
   98.736785 2.3531177e-13 
   98.796837 5.2424731e-13 
   98.856889 1.1673995e-12 
   98.916941 2.6000868e-12 
   98.976993 5.7905347e-12 
   99.037045 1.2895851e-11 
   99.097097 2.8720193e-11 
   99.157149 6.3962169e-11 
   99.217202 1.4244939e-10 
   99.277254 3.1724706e-10 
   99.337306 7.0653666e-10 
   99.397358 1.5735181e-09 
    99.45741 3.5043608e-09 
   99.517462 7.8045139e-09 
   99.577514 1.7381326e-08 
   99.637566 3.8709712e-08 
   99.697618 8.6209869e-08 
    99.75767 1.9199681e-07 
   99.817722 4.2759344e-07 
   99.877774 9.5228732e-07 
   99.937826 2.1208252e-06 
   99.997878 4.7232567e-06 
   100.05793 1.051908e-05 
   100.11798 2.3426798e-05 
   100.17803 5.2173003e-05 
   100.23809 0.0001161913 
   100.29814 0.00025875578 
   100.35819 0.00057621056 
   100.41824 0.0012829687 
   100.47829 0.0028557857 
   100.53835 0.0063526716 
    100.5984  0.014111335 
   100.65845   0.03124707 
   100.71851  0.068712994 
   100.77856   0.14885228 
   100.83862   0.31250708 
   100.89869   0.61719575 
   100.95877    1.0977661 
   101.01888    1.6877919 
   101.07903    2.2244738 
   101.13924    2.5946652 
   101.19951    2.8038978 
   101.25985    2.9089991 
   101.32027    2.9586424 
   101.38076    2.9813956 
   101.44132    2.9916745 
   101.50196    2.9962851 
   101.56267    2.9983455 
   101.62346    2.9992641 
   101.68432    2.9996731 
   101.74526    2.9998549 
   101.80627    2.9999357 
   101.86736    2.9999715 
   101.92853    2.9999874 
   101.98976    2.9999944 
   102.05108    2.9999975 
   102.11247    2.9999989 
   102.17393    2.9999995 
   102.23547    2.9999998 
   102.29708    2.9999999 
   102.35877            3 
   102.42053            3 
   102.48237            3 
   102.54428            3 
   102.60627            3 
   102.66833            3 
   102.73047            3 
   102.79269            3 
   102.85497            3 
   102.91734            3 
   102.97978            3 
   103.04229            3 
   103.10488            3 
   103.16754            3 
   103.23028            3 
   103.29309            3 
   103.35598            3 
   103.41894            3 
   103.48198            3 
    103.5451            3 
   103.60828            3 
   103.67155            3 
   103.73488            3 
    103.7983            3 
   103.86179            3 
   103.92535            3 
   103.98899            3 
    104.0527            3 
   104.11649            3 
   104.18035            3 
   104.24429            3 
    104.3083            3 
   104.37239            3 
   104.43656            3 
   104.50079            3 
   104.56511            3 
   104.62949            3 
   104.69396            3 
    104.7585            3 
   104.82311            3 
    104.8878            3 
   104.95256            3 
    105.0174            3 
   105.08231            3 
    105.1473            3 
   105.21236            3 
    105.2775            3 
   105.34272            3 
     105.408            3 
   105.47337            3 
   105.53881            3 
   105.60432            3 
   105.66991            3 
   105.73557            3 
   105.80131            3 
   105.86712            3 
   105.93301            3 
   105.99897            3 
   106.06501            3 
   106.13112            3 
   106.19731            3 
   106.26358            3 
   106.32991            3 
   106.39633            3 
   106.46282            3 
   106.52938            3 
   106.59602            3 
   106.66273            3 
   106.72952            3 
   106.79638            3 
   106.86332            3 
   106.93033            3 
   106.99742            3 
   107.06458            3 
   107.13182            3 
   107.19914            3 
   107.26652            3 
   107.33399            3 
   107.40153            3 
   107.46914            3 
   107.53683            3 
   107.60459            3 
   107.67243    2.9999999 
   107.74034    2.9999998 
   107.80833    2.9999996 
   107.87639    2.9999991 
   107.94453    2.9999977 
   108.01274    2.9999942 
   108.08103    2.9999857 
    108.1494    2.9999644 
   108.21783    2.9999113 
   108.28635    2.9997789 
   108.35494    2.9994483 
    108.4236    2.9986221 
   108.49234    2.9965569 
   108.56115    2.9913965 
   108.63004    2.9785363 
     108.699     2.946743 
   108.76804    2.8697902 
   108.83714    2.6929578 
   108.90632    2.3314196 
   108.97555    1.7423315 
   109.04483    1.0645913 
   109.11413   0.53760101 
   109.18345   0.23919445 
   109.25277  0.099709331 
    109.3221  0.040373441 
   109.39142  0.016150815 
   109.46075 0.0064292968 
   109.53008 0.0025543519 
   109.59941  0.001014049 
   109.66873 0.00040244118 
   109.73806 0.00015969541 
   109.80739 6.3366722e-05 
   109.87671 2.5143262e-05 
   109.94604 9.9765104e-06 
   110.01537 3.958534e-06 
    110.0847 1.5706867e-06 
   110.15402 6.2322453e-07 
   110.22335 2.4728595e-07 
   110.29268 9.8119267e-08 
     110.362 3.8932218e-08 
   110.43133 1.5447706e-08 
   110.50066 6.1294123e-09 
   110.56999 2.4320566e-09 
   110.63931 9.6500274e-10 
   110.70864 3.8289821e-10 
   110.77797 1.5192814e-10 
   110.84729 6.0282779e-11 
   110.91662  2.39192e-11 
   110.98595 9.4907415e-12 
   111.05528 3.765821e-12 
    111.1246 1.4941381e-12 
   111.19393 5.928591e-13 
   111.26326 2.3531177e-13 
   111.33258 9.3258734e-14 
   111.40191 3.6970427e-14 
   111.47124 1.4654944e-14 
   111.54057 5.8286709e-15 
   111.60989 2.3314684e-15 
   111.67922 9.9920072e-16 
   111.74855 3.3306691e-16 
   111.81787 1.6653345e-16 
    111.8872            0 
   111.95653            0 
   112.02586            0 
   112.09518            0 
   112.16451            0 
   112.23384            0 
   112.30316            0 
   112.37249            0 
   112.44182            0 
   112.51115            0 
   112.58047            0 
    112.6498            0 
   112.71913            0 
   112.78845            0 
   112.85778            0 
   112.92711            0 
   112.99643            0 
   113.06576            0 
   113.13509            0 
   113.20442            0 
   113.27374            0 
   113.34307            0 
    113.4124            0 
   113.48172            0 
   113.55105            0 
   113.62038            0 
   113.68971            0 
   113.75903            0 
   113.82836            0 
   113.89769            0 
   113.96701            0 
   114.03634            0 
   114.10567            0 
     114.175            0 
   114.24432            0 
   114.31365            0 
   114.38298            0 
    114.4523            0 
   114.52163            0 
   114.59096            0 
   114.66029            0 
   114.72961            0 
   114.79894            0 
   114.86827            0 
   114.93759            0 
   115.00692            0 
   115.07625            0 
   115.14558            0 
    115.2149            0 
   115.28423            0 
   115.35356            0 
   115.42288            0 
   115.49221            0 
   115.56154            0 
   115.63087            0 
   115.70019            0 
   115.76952            0 
   115.83885            0 
   115.90817            0 
    115.9775            0 
   116.04683            0 
   116.11616            0 
   116.18548            0 
   116.25481            0 
   116.32414            0 
   116.39346            0 
   116.46279            0 
   116.53212            0 
   116.60145            0 
   116.67077            0 
    116.7401            0 
   116.80943            0 
   116.87875            0 
   116.94808            0 
   117.01741            0 
   117.08674            0 
   117.15606            0 
   117.22539            0 
   117.29472            0 
   117.36404            0 
   117.43337            0 
    117.5027            0 
   117.57202            0 
   117.64135            0 
   117.71068            0 
   117.78001            0 
   117.84933            0 
   117.91866            0 
   117.98799            0 
   118.05731            0 
   118.12664            0 
   118.19597            0 
    118.2653            0 
   118.33462            0 
   118.40395            0 
   118.47328            0 
    118.5426            0 
   118.61193            0 
   118.68126            0 
   118.75059            0 
   118.81991            0 
   118.88924            0 
   118.95857            0 
   119.02789            0 
   119.09722            0 
   119.16655            0 
   119.23588            0 
    119.3052            0 
   119.37453            0 
   119.44386            0 
   119.51318            0 
   119.58251            0 
   119.65184            0 
   119.72117            0 
   119.79049            0 
   119.85982            0 
   119.92915            0 
   119.99847            0 
    120.0678            0 
   120.13713            0 
   120.20646            0 
   120.27578            0 
[...]
   1134.0959            0 
   1134.3095            0 
    1134.523            0 
   1134.7366            0 
   1134.9501            0 
   1135.1637            0 
   1135.3772            0 
   1135.5908            0 
   1135.8044            0 
   1136.0179            0 
   1136.2315            0 
    1136.445            0 
   1136.6586            0 
   1136.8721            0 
   1137.0857            0 
   1137.2993            0 
   1137.5128            0 
   1137.7264            0 
   1137.9399            0 
   1138.1535            0 
    1138.367            0 
   1138.5806            0 
   1138.7941            0 
   1139.0077            0 
   1139.2213            0 
   1139.4348            0 
   1139.6484            0 
   1139.8619            0 
   1140.0755            0 
    1140.289            0 
   1140.5026            0 
   1140.7162            0 
   1140.9297            0 
   1141.1433            0 
   1141.3568            0 
   1141.5704            0 
   1141.7839            0 
   1141.9975            0 
   1142.2111            0 
   1142.4246            0 
   1142.6382            0 
   1142.8517            0 
   1143.0653            0 
   1143.2788            0 
   1143.4924            0 
    1143.706            0 
   1143.9195            0 
   1144.1331            0 
   1144.3466            0 
   1144.5602            0 
   1144.7737            0 
   1144.9873            0 
   1145.2009            0 
   1145.4144            0 
    1145.628            0 
   1145.8415            0 
   1146.0551            0 
   1146.2686            0 
   1146.4822            0 
   1146.6958            0 
   1146.9093            0 
   1147.1229            0 
   1147.3364            0 
     1147.55            0 
   1147.7635            0 
   1147.9771            0 
   1148.1907 1.6653345e-16 
   1148.4042 2.8310687e-15 
   1148.6178 4.8128168e-14 
   1148.8313 8.3016927e-13 
   1149.0449 1.4315549e-11 
   1149.2584 2.4684638e-10 
    1149.472 4.2564519e-09 
   1149.6855 7.3395368e-08 
   1149.8991 1.2655795e-06 
   1150.1127 2.1822644e-05 
   1150.3262 0.00037625043 
   1150.5398 0.0064746182 
   1150.7533   0.10786288 
   1150.9669     1.174203 
   1151.1805    2.7519484 
   1151.3941    2.9844204 
   1151.6079    2.9990942 
   1151.8217    2.9999476 
   1152.0356     2.999997 
   1152.2495    2.9999998 
   1152.4636            3 
   1152.6777            3 
   1152.8918            3 
   1153.1061            3 
   1153.3204            3 
   1153.5348            3 
   1153.7493            3 
   1153.9639            3 
   1154.1785            3 
   1154.3932            3 
    1154.608            3 
   1154.8229            3 
   1155.0378            3 
   1155.2528            3 
   1155.4679            3 
    1155.683            3 
   1155.8983            3 
   1156.1136            3 
    1156.329            3 
   1156.5444            3 
     1156.76            3 
   1156.9756            3 
   1157.1912            3 
    1157.407            3 
   1157.6228            3 
   1157.8387    2.9999994 
   1158.0547    2.9999899 
   1158.2708    2.9998203 
   1158.4869    2.9967969 
   1158.7031    2.9437929 
   1158.9194    2.2364489 
   1159.1357    0.4219769 
   1159.3521  0.027188745 
   1159.5684 0.0015322768 
   1159.7848 8.5656929e-05 
   1160.0011 4.7861906e-06 
   1160.2175 2.6742772e-07 
   1160.4338 1.4942465e-08 
   1160.6502 8.3490681e-10 
   1160.8665 4.6650184e-11 
   1161.0829 2.6065816e-12 
   1161.2992 1.4571677e-13 
   1161.5156 8.1601392e-15 
   1161.7319 4.9960036e-16 
   1161.9483            0 
   1162.1646            0 
    1162.381            0 
   1162.5973            0 
   1162.8137            0 
     1163.03            0 
   1163.2464            0 
   1163.4627            0 
    1163.679            0 
   1163.8954            0 
   1164.1117            0 
   1164.3281            0 
   1164.5444            0 
   1164.7608            0 
   1164.9771            0 
   1165.1935            0 
   1165.4098            0 
   1165.6262            0 
   1165.8425            0 
   1166.0589            0 
   1166.2752            0 
   1166.4916            0 
   1166.7079            0 
   1166.9243            0 
   1167.1406            0 
    1167.357            0 
   1167.5733            0 
   1167.7897            0 
    1168.006            0 
   1168.2224            0 
   1168.4387            0 
   1168.6551            0 
   1168.8714            0 
   1169.0878            0 
   1169.3041            0 
   1169.5204            0 
   1169.7368            0 
   1169.9531            0 
   1170.1695            0 
   1170.3858            0 
   1170.6022            0 
   1170.8185            0 
   1171.0349            0 
   1171.2512            0 
   1171.4676            0 
   1171.6839            0 
   1171.9003            0 
   1172.1166            0 
    1172.333            0 
   1172.5493            0 
   1172.7657            0 
    1172.982            0 
   1173.1984            0 
   1173.4147            0 
   1173.6311            0 
   1173.8474            0 
   1174.0638            0 
   1174.2801            0 
   1174.4965            0 
   1174.7128            0 
   1174.9292            0 
   1175.1455            0 
   1175.3618            0 
   1175.5782            0 
   1175.7945            0 
   1176.0109            0 
   1176.2272            0 
   1176.4436            0 
   1176.6599            0 
   1176.8763            0 
   1177.0926            0 
    1177.309            0 
   1177.5253            0 
   1177.7417            0 
    1177.958            0 
   1178.1744 1.6653345e-16 
   1178.3907 2.3314684e-15 
   1178.6071 4.1799897e-14 
   1178.8234 7.4723561e-13 
   1179.0398 1.3372636e-11 
   1179.2561 2.3933105e-10 
   1179.4725 4.283348e-09 
   1179.6888 7.665978e-08 
   1179.9052 1.3719921e-06 
   1180.1215 2.4554577e-05 
   1180.3379 0.00043939653 
   1180.5542 0.0078445389 
   1180.7706   0.13445469 
   1180.9869     1.369384 
   1181.2033    2.8129389 
   1181.4197    2.9889101 
   1181.6363    2.9993797 
   1181.8529    2.9999655 
   1182.0696    2.9999981 
   1182.2863    2.9999999 
   1182.5032            3 
   1182.7201            3 
    1182.937            3 
   1183.1541            3 
   1183.3712            3 
   1183.5884            3 
   1183.8057            3 
   1184.0231            3 
   1184.2405            3 
    1184.458            3 
   1184.6756            3 
   1184.8932            3 
    1185.111            3 
   1185.3288            3 
   1185.5467            3 
   1185.7646            3 
   1185.9826            3 
   1186.2008            3 
   1186.4189            3 
   1186.6372            3 
   1186.8555            3 
   1187.0739            3 
   1187.2924            3 
    1187.511            3 
   1187.7296    2.9999999 
   1187.9483    2.9999976 
   1188.1671    2.9999549 
   1188.3859    2.9991659 
   1188.6049    2.9846236 
   1188.8239    2.7384011 
    1189.043    1.0818627 
   1189.2621  0.088448728 
   1189.4812 0.0049004985 
   1189.7003 0.00026434624 
   1189.9194 1.4238704e-05 
   1190.1385 7.6689079e-07 
   1190.3576 4.130425e-08 
   1190.5767 2.2246202e-09 
   1190.7958 1.1981666e-10 
   1191.0149 6.4531713e-12 
    1191.234 3.4755532e-13 
   1191.4531 1.8651747e-14 
   1191.6722 9.9920072e-16 
   1191.8913            0 
   1192.1104            0 
   1192.3295            0 
   1192.5486            0 
   1192.7677            0 
   1192.9868            0 
   1193.2059            0 
    1193.425            0 
   1193.6441            0 
   1193.8632            0 
   1194.0823            0 
   1194.3014            0 
   1194.5205            0 
   1194.7396            0 
   1194.9587            0 
   1195.1778            0 
   1195.3969            0 
   1195.6161            0 
   1195.8352            0 
   1196.0543            0 
   1196.2734            0 
   1196.4925            0 
   1196.7116            0 
   1196.9307            0 
   1197.1498            0 
   1197.3689            0 
    1197.588            0 
   1197.8071            0 
   1198.0262            0 
   1198.2453            0 
   1198.4644            0 
   1198.6835            0 
   1198.9026            0 
   1199.1217            0 
   1199.3408            0 
   1199.5599            0 
    1199.779            0 
   1199.9981            0 
   1200.2172            0 
   1200.4363            0 
   1200.6554            0 
   1200.8745            0 
   1201.0936            0 
   1201.3127            0 
   1201.5318            0 
   1201.7509            0 
   1201.9701            0 
   1202.1892            0 
   1202.4083            0 
   1202.6274            0 
   1202.8465            0 
   1203.0656            0 
   1203.2847            0 
   1203.5038            0 
   1203.7229            0 
    1203.942            0 
   1204.1611            0 
   1204.3802            0 
   1204.5993            0 
   1204.8184            0 
   1205.0375            0 
   1205.2566            0 
   1205.4757            0 
   1205.6948            0 
   1205.9139            0 
    1206.133            0 
   1206.3521            0 
   1206.5712            0 
   1206.7903            0 
   1207.0094            0 
   1207.2285            0 
   1207.4476            0 
   1207.6667            0 
   1207.8858            0 
   1208.1049            0 
   1208.3241 9.9920072e-16 
   1208.5432 1.781908e-14 
   1208.7623 3.3056891e-13 
   1208.9814 6.137757e-12 
   1209.2005 1.1395784e-10 
   1209.4196 2.1158417e-09 
   1209.6387 3.9284576e-08 
   1209.8578 7.2939176e-07 
   1210.0769 1.354247e-05 
    1210.296 0.00025142146 
   1210.5151 0.0046612496 
   1210.7342   0.08424555 
   1210.9533    1.0474762 
   1211.1724    2.7263873 
   1211.3916    2.9838923 
   1211.6109      2.99913 
   1211.8303    2.9999533 
   1212.0497    2.9999975 
   1212.2692    2.9999999 
   1212.4887            3 
   1212.7084            3 
   1212.9281            3 
   1213.1479            3 
   1213.3678            3 
   1213.5877            3 
   1213.8078            3 
   1214.0279            3 
    1214.248            3 
   1214.4683            3 
   1214.6886            3 
    1214.909            3 
   1215.1295            3 
     1215.35            3 
   1215.5707            3 
   1215.7914            3 
   1216.0121            3 
    1216.233            3 
   1216.4539            3 
   1216.6749            3 
    1216.896            3 
   1217.1171            3 
   1217.3384            3 
   1217.5597            3 
    1217.781    2.9999997 
   1218.0025     2.999995 
    1218.224    2.9999037 
   1218.4456    2.9981523 
   1218.6673    2.9648917 
    1218.889     2.443496 
   1219.1108   0.55721055 
   1219.3327  0.035127609 
   1219.5545 0.0018450192 
   1219.7763 9.5886645e-05 
   1219.9981 4.980526e-06 
     1220.22 2.5869011e-07 
   1220.4418 1.3436427e-08 
   1220.6636 6.9789124e-10 
   1220.8854 3.6248671e-11 
   1221.1073 1.8828272e-12 
   1221.3291 9.7755137e-14 
   1221.5509 5.1625371e-15 
   1221.7727 3.3306691e-16 
   1221.9946            0 
   1222.2164            0 
   1222.4382            0 
     1222.66            0 
   1222.8819            0 
   1223.1037            0 
   1223.3255            0 
   1223.5473            0 
   1223.7692            0 
    1223.991            0 
   1224.2128            0 
   1224.4346            0 
   1224.6565            0 
   1224.8783            0 
   1225.1001            0 
   1225.3219            0 
   1225.5438            0 
   1225.7656            0 
   1225.9874            0 
   1226.2092            0 
   1226.4311            0 
   1226.6529            0 
   1226.8747            0 
   1227.0965            0 
   1227.3184            0 
   1227.5402            0 
    1227.762            0 
   1227.9838            0 
   1228.2057            0 
   1228.4275            0 
   1228.6493            0 
   1228.8711            0 
    1229.093            0 
   1229.3148            0 
   1229.5366            0 
   1229.7584            0 
   1229.9803            0 
   1230.2021            0 
   1230.4239            0 
   1230.6457            0 
   1230.8675            0 
   1231.0894            0 
   1231.3112            0 
    1231.533            0 
   1231.7548            0 
   1231.9767            0 
   1232.1985            0 
   1232.4203            0 
   1232.6421            0 
    1232.864            0 
   1233.0858            0 
   1233.3076            0 
   1233.5294            0 
   1233.7513            0 
   1233.9731            0 
   1234.1949            0 
   1234.4167            0 
   1234.6386            0 
   1234.8604            0 
   1235.0822            0 
    1235.304            0 
   1235.5259            0 
   1235.7477            0 
   1235.9695            0 
   1236.1913            0 
   1236.4132            0 
    1236.635            0 
   1236.8568            0 
   1237.0786            0 
   1237.3005            0 
   1237.5223            0 
   1237.7441            0 
   1237.9659            0 
   1238.1878 1.6653345e-16 
   1238.4096 2.9976022e-15 
   1238.6314 5.7787108e-14 
   1238.8532 1.1119439e-12 
   1239.0751 2.1408209e-11 
   1239.2969 4.1217013e-10 
   1239.5187 7.9354684e-09 
   1239.7405 1.5278074e-07 
   1239.9624 2.941469e-06 
   1240.1842 5.6630784e-05 
    1240.406 0.0010899311 
   1240.6278  0.020846098 
   1240.8497   0.35617526 
   1241.0715     2.165292 
   1241.2934      2.94116 
   1241.5153    2.9968916 
   1241.7374    2.9998388 
   1241.9595    2.9999917 
   1242.1817    2.9999996 
   1242.4039            3 
   1242.6263            3 
   1242.8487            3 
   1243.0712            3 
   1243.2937            3 
   1243.5164            3 
   1243.7391            3 
   1243.9619            3 
   1244.1847            3 
   1244.4077            3 
   1244.6307            3 
   1244.8538            3 
   1245.0769            3 
   1245.3002            3 
   1245.5235            3 
   1245.7469            3 
   1245.9703            3 
   1246.1939            3 
   1246.4175            3 
   1246.6412            3 
   1246.8649            3 
   1247.0888            3 
   1247.3127            3 
   1247.5367            3 
   1247.7607    2.9999998 
   1247.9849     2.999996 
   1248.2091    2.9999211 
   1248.4334    2.9984308 
   1248.6577    2.9690555 
   1248.8822    2.4839178 
   1249.1066   0.58305434 
   1249.3312  0.035833088 
   1249.5557 0.0018162435 
   1249.7802 9.1066341e-05 
   1250.0047 4.5635665e-06 
   1250.2292 2.2868569e-07 
   1250.4537 1.1459693e-08 
   1250.6782 5.7425781e-10 
   1250.9028 2.8776648e-11 
   1251.1273 1.4420132e-12 
   1251.3518 7.2275519e-14 
   1251.5763 3.663736e-15 
   1251.8008 1.6653345e-16 
   1252.0253            0 
   1252.2498            0 
   1252.4743            0 
   1252.6989            0 
   1252.9234            0 
   1253.1479            0 
   1253.3724            0 
   1253.5969            0 
   1253.8214            0 
   1254.0459            0 
   1254.2705            0 
    1254.495            0 
   1254.7195            0 
    1254.944            0 
   1255.1685            0 
    1255.393            0 
   1255.6175            0 
   1255.8421            0 
   1256.0666            0 
   1256.2911            0 
   1256.5156            0 
   1256.7401            0 
   1256.9646            0 
   1257.1891            0 
   1257.4136            0 
   1257.6382            0 
   1257.8627            0 
   1258.0872            0 
   1258.3117            0 
   1258.5362            0 
   1258.7607            0 
   1258.9852            0 
   1259.2098            0 
   1259.4343            0 
   1259.6588            0 
   1259.8833            0 
   1260.1078            0 
   1260.3323            0 
   1260.5568            0 
   1260.7813            0 
   1261.0059            0 
   1261.2304            0 
   1261.4549            0 
   1261.6794            0 
   1261.9039            0 
   1262.1284            0 
   1262.3529            0 
   1262.5775            0 
    1262.802            0 
   1263.0265            0 
    1263.251            0 
   1263.4755            0 
      1263.7            0 
   1263.9245            0 
    1264.149            0 
   1264.3736            0 
   1264.5981            0 
   1264.8226            0 
   1265.0471            0 
   1265.2716            0 
   1265.4961            0 
   1265.7206            0 
   1265.9452            0 
   1266.1697            0 
   1266.3942            0 
   1266.6187            0 
   1266.8432            0 
   1267.0677            0 
   1267.2922            0 
   1267.5168            0 
   1267.7413            0 
   1267.9658            0 
   1268.1903 1.6653345e-16 
   1268.4148 3.1641356e-15 
   1268.6393 6.411538e-14 
   1268.8638 1.2806423e-12 
   1269.0883 2.5556557e-11 
   1269.3129 5.0999721e-10 
   1269.5374 1.0177329e-08 
   1269.7619 2.0309527e-07 
   1269.9864 4.0528943e-06 
   1270.2109 8.0876097e-05 
   1270.4354 0.0016131113 
   1270.6599   0.03186592 
   1270.8845   0.52933208 
    1271.109    2.4314125 
   1271.3336    2.9652859 
   1271.5582    2.9982446 
    1271.783    2.9999122 
   1272.0078    2.9999956 
   1272.2327    2.9999998 
   1272.4576            3 
   1272.6827            3 
   1272.9078            3 
    1273.133            3 
   1273.3582            3 
   1273.5836            3 
    1273.809            3 
   1274.0345            3 
     1274.26            3 
   1274.4857            3 
   1274.7114            3 
   1274.9372            3 
    1275.163            3 
    1275.389            3 
    1275.615            3 
   1275.8411            3 
   1276.0672            3 
   1276.2935            3 
   1276.5198            3 
   1276.7462            3 
   1276.9726            3 
   1277.1992            3 
   1277.4258            3 
   1277.6525            3 
   1277.8792     2.999999 
   1278.1061      2.99998 
    1278.333    2.9995883 
     1278.56     2.991531 
    1278.787     2.834341 
   1279.0142    1.3588137 
   1279.2413   0.11551507 
   1279.4685 0.0057996644 
   1279.6957 0.00028103044 
   1279.9228 1.3593861e-05 
     1280.15 6.5749951e-07 
   1280.3772 3.1801402e-08 
   1280.6043 1.5381441e-09 
   1280.8315 7.4395656e-11 
   1281.0587 3.5982883e-12 
   1281.2859 1.7402746e-13 
    1281.513 8.4932061e-15 
   1281.7402 3.3306691e-16 
   1281.9674            0 
   1282.1945            0 
   1282.4217            0 
   1282.6489            0 
    1282.876            0 
   1283.1032            0 
   1283.3304            0 
   1283.5576            0 
   1283.7847            0 
   1284.0119            0 
   1284.2391            0 
   1284.4662            0 
   1284.6934            0 
   1284.9206            0 
   1285.1477            0 
   1285.3749            0 
   1285.6021            0 
   1285.8293            0 
   1286.0564            0 
   1286.2836            0 
   1286.5108            0 
   1286.7379            0 
   1286.9651            0 
   1287.1923            0 
   1287.4194            0 
   1287.6466            0 
   1287.8738            0 
    1288.101            0 
   1288.3281            0 
   1288.5553            0 
   1288.7825            0 
   1289.0096            0 
   1289.2368            0 
    1289.464            0 
   1289.6911            0 
   1289.9183            0 
   1290.1455            0 
   1290.3727            0 
   1290.5998            0 
    1290.827            0 
   1291.0542            0 
   1291.2813            0 
   1291.5085            0 
   1291.7357            0 
   1291.9628            0 
     1292.19            0 
   1292.4172            0 
   1292.6444            0 
   1292.8715            0 
   1293.0987            0 
   1293.3259            0 
    1293.553            0 
   1293.7802            0 
   1294.0074            0 
   1294.2345            0 
   1294.4617            0 
   1294.6889            0 
   1294.9161            0 
   1295.1432            0 
   1295.3704            0 
   1295.5976            0 
   1295.8247            0 
   1296.0519            0 
   1296.2791            0 
   1296