LAMMPS (17 Nov 2016)
# Sample LAMMPS script for modulating the probability that a hexamer passes
# a pore with pulling force on a LJ wall, under Langevin dynamics

# settings
# a 3D 60 box
variable      x equal 60
variable      y equal 30
variable      z equal 30
# temperature t = 1
variable      t equal 1
#variable      rho equal 0.7
#neigh_modify  delay 0 check yes one 200000 page 2000000


# System setup

units         lj
dimension     3
atom_style    bond
bond_style    harmonic
pair_style    lj/cut 3
read_data     data.polymer
  orthogonal box = (0 0 0) to (60 30 30)
  1 by 1 by 1 MPI processor grid
  reading atoms ...
  8887 atoms
  scanning bonds ...
  1 = max bonds/atom
  reading bonds ...
  9 bonds
  2 = max # of 1-2 neighbors
  2 = max # of 1-3 neighbors
  4 = max # of 1-4 neighbors
  6 = max # of special neighbors

# LJ pairs

# lattice       fcc ${rho}
# region        simbox block 0 $x 0 $y 0 $z
#create_box    1 simbox
region        void cylinder x 15 15 2 29 31
#region        wall block 29 31 0 30 0 30



#create_atoms  3 region wall
#delete_atoms  region void
pair_coeff    1 2 2.5 1 3
pair_coeff    1 3 2.5 1.0 3.0
pair_coeff    2 3 2.5 1.0 3.0

velocity      all create $t 97287
velocity      all create 1 97287


# Read bond/position info
group         polymer type 1 2
10 atoms in group polymer
group         first type 1
1 atoms in group first
region        spherein sphere 29 15 15 2
region        boxin block 27 29 13 17 13 17
region        hemiin intersect 2 boxin spherein
#region        sphereout sphere 31 15 15 2
#region        boxout block 31 33 13 17 13 17
#region        hemiout intersect 2 boxout sphereout


# Create forces
#variable      r equal sqrt((x[1]-29)*(x[1]-29)+(y[1]-15)*(y[1]-15)+(z[1]-15)*(z[1]-15))
#variable      fx equal 5*(x[1]-29)/$r
#variable      fy equal 5*(y[1]-15)/$r
#variable      fz equal 5*(z[1]-15)/$r
fix           1 polymer nve
fix           2 polymer langevin $t $t 5 1209
fix           2 polymer langevin 1 $t 5 1209
fix           2 polymer langevin 1 1 5 1209
fix           3 first addforce 5 0 0
fix           4 first addforce 1 0 0 region void
#fix           5 first addforce -5 0 0 region hemiout

dump          walll polymer image 1000 dump.*.jpg type type
# equilibration run
#thermo        1000
#run           5000


reset_timestep 0
compute       com polymer com
thermo_style custom c_com[1]

thermo        1
run           10000000
Neighbor list info ...
  1 neighbor list requests
  update every 1 steps, delay 10 steps, check yes
  max neighbors/atom: 2000, page size: 100000
  master list distance cutoff = 3.3
  ghost atom cutoff = 3.3
  binsize = 1.65 -> bins = 37 19 19
Memory usage per processor = 4.34626 Mbytes
c_com[1] 
        22.5 
   22.500242 
   22.500545 
   22.500994 
   22.501456 
   22.501913 
   22.502376 
   22.502686 
   22.502985 
   22.503288 
    22.50364 
   22.504043 
   22.504361 
   22.504781 
   22.505243 
   22.505743 
   22.506273 
   22.506861 
   22.507433 
    22.50805 
    22.50876 
   22.509481 
   22.510269 
    22.51093 
   22.511437 
   22.511961 
   22.512523 
    22.51325 
   22.514059 
   22.515029 
   22.516046 
   22.517081 
   22.518067 
   22.519093 
   22.520195 
   22.521416 
    22.52269 
   22.523982 
   22.525347 
   22.526766 
   22.528222 
   22.529613 
   22.531121 
   22.532711 
   22.534274 
   22.535976 
   22.537684 
    22.53933 
   22.541028 
   22.542682 
   22.544331 
   22.546085 
   22.547957 
   22.549883 
   22.551906 
   22.554009 
    22.55619 
   22.558312 
   22.560473 
   22.562666 
   22.564912 
   22.567377 
   22.569935 
   22.572611 
    22.57552 
   22.578508 
   22.581598 
    22.58478 
   22.588115 
   22.591607 
   22.595214 
   22.598817 
   22.602439 
    22.60573 
   22.608486 
   22.610319 
   22.610953 
   22.610271 
   22.608547 
   22.606019 
   22.603216 
   22.600248 
   22.597215 
   22.594233 
   22.591238 
   22.588393 
   22.585648 
   22.583052 
   22.580699 
   22.578527 
   22.576597 
   22.574961 
   22.573509 
   22.572135 
   22.570863 
   22.569735 
   22.568657 
   22.567748 
   22.566831 
   22.565949 
   22.565093 
   22.564254 
   22.563512 
   22.562887 
   22.562311 
   22.561807 
    22.56133 
   22.560995 
    22.56071 
   22.560501 
   22.560374 
   22.560233 
   22.560082 
   22.559997 
   22.559838 
   22.559694 
   22.559766 
   22.559983 
   22.560229 
    22.56049 
   22.560873 
   22.561453 
   22.562156 
   22.562797 
   22.563503 
   22.564285 
    22.56514 
   22.566161 
   22.567193 
   22.568249 
   22.569396 
    22.57058 
   22.571753 
   22.573048 
   22.574336 
   22.575657 
   22.577042 
   22.578546 
   22.579975 
   22.581598 
   22.583193 
   22.584873 
   22.586671 
   22.588512 
   22.590306 
   22.592121 
   22.593847 
   22.595655 
   22.597453 
   22.599351 
   22.601515 
   22.603779 
   22.606186 
   22.608656 
   22.611314 
   22.614024 
   22.616853 
   22.619818 
    22.62285 
   22.626076 
   22.629425 
   22.632832 
   22.636366 
   22.640096 
   22.643963 
   22.647806 
   22.651776 
   22.655876 
    22.65991 
   22.663775 
   22.667237 
   22.670075 
   22.672231 
   22.673316 
   22.673313 
    22.67239 
   22.670959 
   22.669078 
   22.667052 
   22.665051 
     22.6631 
   22.661296 
     22.6595 
   22.657763 
   22.656157 
   22.654744 
   22.653478 
   22.652221 
   22.651078 
   22.650085 
   22.649241 
   22.648461 
   22.647842 
     22.6474 
   22.647138 
   22.646964 
   22.646781 
   22.646685 
   22.646793 
   22.646926 
   22.647132 
   22.647547 
   22.648079 
   22.648778 
   22.649531 
   22.650375 
   22.651261 
   22.652234 
   22.653324 
   22.654488 
   22.655645 
   22.656773 
   22.658068 
   22.659509 
   22.661047 
   22.662731 
   22.664524 
   22.666452 
   22.668496 
   22.670652 
   22.673039 
   22.675647 
   22.678413 
    22.68135 
   22.684348 
   22.687374 
   22.690646 
   22.693999 
   22.697565 
   22.701195 
   22.705101 
   22.709244 
   22.713554 
   22.718151 
   22.722974 
    22.72799 
   22.733249 
   22.738771 
   22.744552 
   22.750494 
   22.756578 
   22.762947 
   22.769462 
   22.776209 
   22.783173 
   22.790414 
   22.797702 
   22.805027 
   22.812222 
      22.819 
    22.82499 
   22.829871 
   22.833309 
   22.834836 
   22.834521 
   22.832726 
     22.8297 
   22.826052 
    22.82201 
   22.817866 
   22.813576 
   22.809502 
   22.805676 
   22.802096 
   22.798828 
   22.795849 
   22.793134 
   22.790685 
   22.788529 
   22.786609 
   22.785023 
   22.783695 
   22.782639 
   22.781729 
   22.780967 
   22.780464 
    22.78023 
   22.780233 
   22.780291 
   22.780489 
   22.780817 
     22.7813 
   22.781941 
   22.782672 
   22.783548 
   22.784652 
   22.786021 
   22.787571 
   22.789287 
   22.791121 
   22.793068 
   22.795183 
   22.797488 
   22.800094 
   22.802898 
   22.805865 
   22.808966 
    22.81229 
   22.815704 
    22.81914 
   22.822673 
   22.826309 
   22.830082 
   22.833949 
   22.837963 
   22.842122 
   22.846447 
   22.850809 
   22.855345 
   22.859785 
   22.864008 
   22.867942 
   22.871364 
   22.874162 
   22.876291 
    22.87797 
   22.879205 
   22.880225 
   22.881125 
   22.882126 
   22.883126 
   22.884311 
   22.885684 
   22.887054 
   22.888623 
   22.890229 
   22.892109 
   22.894121 
   22.896328 
   22.898672 
   22.901268 
   22.903982 
   22.906973 
   22.910226 
   22.913688 
   22.917424 
   22.921422 
   22.925637 
   22.930188 
   22.935023 
   22.940181 
   22.945503 
   22.950945 
   22.956527 
   22.962149 
   22.967728 
   22.972975 
   22.977752 
    22.98184 
   22.985246 
   22.987984 
   22.990162 
   22.991879 
   22.993399 
   22.994795 
   22.996247 
   22.997804 
   22.999398 
   23.000913 
   23.002448 
   23.003873 
   23.004974 
   23.005677 
   23.005927 
   23.005847 
   23.005455 
   23.004761 
   23.003876 
   23.002832 
   23.001824 
   23.000905 
   23.000217 
   22.999619 
   22.999048 
   22.998659 
   22.998552 
   22.998624 
   22.998954 
   22.999524 
   23.000246 
   23.001132 
   23.002275 
   23.003682 
   23.005191 
   23.007005 
    23.00894 
   23.011134 
   23.013511 
   23.016133 
   23.019057 
    23.02226 
   23.025734 
   23.029486 
   23.033383 
     23.0374 
   23.041604 
   23.046055 
   23.050742 
   23.055522 
   23.060496 
   23.065544 
   23.070774 
   23.076175 
   23.081696 
   23.087301 
    23.09284 
   23.098253 
   23.103334 
   23.108138 
   23.112383 
   23.116154 
   23.119325 
   23.122179 
   23.124743 
   23.127317 
   23.129819 
   23.132373 
   23.134842 
   23.137324 
   23.139725 
   23.141891 
    23.14363 
   23.144784 
   23.145336 
   23.145314 
   23.144777 
    23.14404 
   23.143355 
   23.142724 
   23.142226 
   23.141968 
   23.141905 
   23.142248 
   23.142703 
   23.143345 
   23.144287 
   23.145623 
   23.147237 
   23.149133 
   23.151348 
    23.15376 
   23.156441 
   23.159383 
   23.162458 
   23.165874 
   23.169524 
   23.173483 
   23.177801 
   23.182333 
   23.187211 
   23.192171 
   23.197234 
   23.202275 
   23.207198 
    23.21194 
   23.216361 
   23.220312 
   23.223691 
   23.226563 
   23.229007 
   23.231165 
   23.233086 
    23.23495 
   23.236856 
    23.23886 
   23.241065 
   23.243462 
    23.24604 
   23.248859 
    23.25195 
   23.255208 
   23.258751 
   23.262548 
   23.266754 
   23.271146 
   23.275847 
   23.280722 
   23.285899 
   23.291318 
   23.297013 
   23.303034 
    23.30921 
   23.315404 
   23.321672 
   23.327961 
   23.334038 
   23.339868 
    23.34516 
   23.349866 
   23.353991 
   23.357585 
   23.360781 
   23.363846 
   23.366911 
   23.369944 
   23.373189 
   23.376649 
   23.380101 
   23.383619 
   23.387239 
   23.390778 
   23.394347 
   23.397821 
   23.401058 
   23.403818 
   23.405993 
   23.407698 
   23.408916 
   23.409854 
   23.410678 
   23.411447 
   23.412219 
   23.413082 
   23.414134 
   23.415435 
   23.416937 
   23.418708 
   23.420706 
   23.422865 
   23.425278 
   23.427834 
   23.430633 
   23.433622 
   23.436785 
   23.440176 
   23.443648 
   23.447316 
   23.451243 
    23.45529 
   23.459548 
   23.464025 
   23.468736 
   23.473722 
   23.478884 
   23.484209 
   23.489777 
   23.495611 
    23.50162 
   23.507976 
   23.514499 
   23.521186 
   23.528038 
   23.535108 
   23.542378 
   23.549883 
   23.557685 
    23.56567 
   23.573688 
   23.581797 
   23.589947 
   23.598044 
   23.605816 
   23.613143 
   23.619884 
   23.626115 
   23.631867 
   23.637256 
   23.642315 
   23.647111 
   23.651627 
   23.655793 
   23.659377 
   23.662307 
   23.664594 
   23.666193 
   23.667254 
   23.667969 
   23.668491 
   23.668987 
   23.669553 
   23.670271 
    23.67131 
   23.672597 
   23.674059 
   23.675863 
   23.677941 
   23.680225 
    23.68268 
    23.68529 
   23.688211 
    23.69142 
    23.69501 
    23.69892 
   23.703036 
   23.707339 
   23.711851 
    23.71654 
   23.721604 
   23.726942 
     23.7325 
    23.73835 
   23.744449 
   23.750855 
   23.757373 
   23.764041 
   23.770954 
   23.777964 
   23.785221 
   23.792338 
   23.799484 
   23.806495 
   23.813333 
   23.819854 
   23.825806 
   23.831468 
   23.836642 
   23.841582 
   23.846336 
    23.85106 
   23.855828 
   23.860763 
   23.866046 
   23.871498 
   23.877255 
   23.883263 
    23.88954 
   23.896118 
   23.903052 
    23.91031 
   23.917999 
   23.926161 
   23.934666 
   23.943603 
   23.952873 
   23.962534 
   23.972424 
   23.982641 
   23.992986 
   24.003256 
   24.013039 
   24.022112 
   24.030069 
   24.036656 
   24.041799 
   24.045708 
   24.048578 
   24.050669 
   24.052102 
   24.053092 
   24.053918 
   24.054738 
   24.055603 
   24.056421 
   24.057199 
   24.058029 
   24.058668 
   24.059215 
   24.059839 
   24.060381 
   24.060865 
   24.061231 
    24.06159 
   24.061941 
   24.062415 
   24.063013 
   24.063656 
   24.064521 
   24.065673 
   24.067135 
   24.068762 
   24.070576 
   24.072749 
   24.075151 
   24.077668 
   24.080447 
   24.083486 
   24.086748 
     24.0903 
    24.09413 
   24.098164 
   24.102558 
   24.107155 
   24.111967 
   24.117084 
   24.122413 
   24.128004 
   24.133857 
   24.139824 
   24.145952 
   24.152175 
   24.158541 
   24.165053 
   24.171603 
   24.178071 
   24.184496 
    24.19071 
   24.196461 
   24.201675 
   24.206059 
   24.209572 
   24.212297 
   24.214309 
   24.215603 
   24.216324 
   24.216682 
   24.216927 
   24.217136 
   24.217402 
   24.217762 
   24.218339 
   24.219081 
   24.220098 
   24.221389 
   24.222877 
   24.224521 
   24.226451 
   24.228477 
   24.230811 
   24.233419 
   24.236259 
   24.239421 
   24.242847 
   24.246454 
   24.250282 
   24.254254 
   24.258454 
   24.262861 
    24.26758 
   24.272656 
   24.278014 
   24.283632 
   24.289492 
   24.295623 
   24.302065 
   24.308746 
   24.315572 
   24.322547 
   24.329779 
   24.337047 
   24.344361 
    24.35177 
    24.35912 
   24.366241 
   24.373125 
   24.379701 
   24.386076 
   24.392178 
   24.397901 
   24.403184 
   24.408065 
   24.412483 
   24.416326 
   24.419572 
   24.422436 
   24.424897 
   24.427111 
   24.429186 
   24.431274 
   24.433562 
     24.4359 
   24.438384 
   24.441098 
    24.44384 
   24.446852 
   24.450175 
   24.453827 
   24.457697 
   24.461881 
   24.466206 
   24.470999 
   24.476018 
     24.4812 
   24.486453 
   24.491924 
    24.49753 
   24.503393 
   24.509478 
   24.515774 
   24.522387 
   24.529159 
   24.536179 
   24.543389 
    24.55073 
   24.557998 
    24.56534 
   24.572739 
   24.580003 
   24.587141 
   24.594124 
   24.600811 
   24.607361 
   24.613738 
   24.619954 
   24.626175 
   24.632315 
   24.638562 
   24.644959 
   24.651505 
   24.658137 
   24.664691 
   24.671154 
   24.677624 
   24.683712 
   24.689606 
   24.695145 
   24.700381 
    24.70528 
   24.709928 
   24.714254 
   24.718494 
   24.722677 
   24.726822 
   24.730979 
   24.735294 
   24.739878 
   24.744613 
   24.749571 
   24.754705 
    24.76015 
   24.765855 
   24.771777 
   24.777912 
    24.78418 
   24.790365 
   24.796504 
   24.802727 
   24.808644 
   24.814388 
   24.819919 
   24.825302 
   24.830603 
   24.835806 
   24.841068 
   24.846443 
   24.851962 
   24.857492 
   24.863112 
    24.86889 
   24.874856 
   24.880999 
   24.887457 
   24.894097 
   24.901075 
   24.908328 
   24.915816 
   24.923503 
   24.931271 
   24.939237 
   24.947416 
   24.955739 
   24.964184 
   24.972765 
   24.981362 
   24.989985 
   24.998511 
   25.006781 
    25.01481 
   25.022479 
   25.029839 
   25.037028 
    25.04395 
   25.050649 
   25.057182 
   25.063528 
   25.069696 
   25.075818 
   25.081855 
   25.087701 
   25.093334 
   25.098793 
   25.103981 
   25.108855 
   25.113626 
   25.118174 
   25.122756 
   25.127377 
   25.132208 
   25.137173 
   25.142379 
   25.147896 
   25.153743 
    25.15989 
   25.166325 
   25.173104 
   25.180172 
   25.187482 
   25.195141 
   25.202979 
   25.211227 
   25.219822 
   25.228582 
   25.237501 
   25.246679 
   25.256113 
   25.265698 
   25.275504 
   25.285547 
   25.295852 
   25.306381 
   25.317218 
   25.328287 
   25.339471 
   25.350566 
   25.361579 
   25.372312 
   25.382885 
   25.393178 
   25.403137 
   25.412778 
   25.422093 
   25.431192 
   25.440069 
   25.448625 
    25.45685 
   25.464854 
   25.472605 
   25.480248 
   25.487948 
   25.495756 
   25.503703 
   25.511846 
    25.52017 
   25.528805 
   25.537759 
   25.547022 
   25.556601 
   25.566603 
   25.577105 
   25.587968 
   25.599084 
   25.610221 
   25.621065 
    25.63128 
    25.64031 
   25.648115 
   25.655153 
   25.661499 
   25.667823 
   25.674216 
   25.680729 
    25.68742 
   25.694438 
   25.701798 
   25.709303 
   25.716777 
   25.724425 
   25.732087 
   25.739594 
   25.746986 
   25.754268 
   25.761322 
   25.768046 
     25.7746 
   25.780841 
   25.786909 
   25.792956 
   25.799037 
   25.805059 
   25.811261 
   25.817667 
   25.824276 
    25.83111 
    25.83801 
   25.844969 
   25.851771 
   25.858102 
   25.863745 
   25.868676 
   25.872892 
    25.87671 
   25.880521 
   25.884463 
   25.888554 
   25.892738 
   25.896957 
   25.900942 
    25.90435 
   25.907055 
   25.909134 
   25.910739 
   25.912086 
   25.913419 
   25.915036 
   25.917045 
   25.919408 
   25.922143 
   25.925246 
    25.92859 
   25.932171 
   25.935827 
   25.939407 
   25.942911 
   25.946162 
   25.949089 
   25.951683 
   25.953966 
   25.955956 
   25.957597 
    25.95881 
   25.959772 
   25.960605 
   25.961383 
   25.962168 
   25.962957 
   25.963925 
   25.965119 
   25.966419 
   25.967933 
   25.969709 
   25.971807 
   25.974135 
   25.976722 
   25.979658 
   25.982939 
   25.986598 
   25.990656 
   25.994911 
   25.999465 
   26.004442 
   26.009802 
   26.015495 
    26.02141 
     26.0276 
   26.034114 
   26.040876 
    26.04805 
   26.055582 
   26.063329 
   26.071341 
   26.079506 
    26.08769 
   26.095854 
   26.103827 
   26.111424 
   26.118741 
   26.125643 
   26.132035 
   26.137943 
    26.14326 
   26.148095 
   26.152542 
   26.156761 
   26.160852 
   26.164766 
   26.168734 
   26.172777 
   26.177002 
   26.181471 
   26.186162 
   26.191015 
   26.196343 
   26.201987 
   26.207989 
    26.21438 
    26.22118 
   26.228298 
   26.235735 
   26.243587 
   26.251719 
   26.260256 
   26.269214 
   26.278648 
    26.28844 
   26.298585 
   26.309147 
    26.32028 
   26.331818 
   26.343701 
   26.355989 
   26.368689 
   26.381656 
   26.394853 
   26.408425 
   26.422302 
   26.436408 
   26.450663 
   26.464974 
   26.479152 
   26.492946 
   26.506246 
   26.518415 
   26.529348 
   26.538779 
   26.546843 
   26.553646 
   26.559097 
   26.563248 
   26.566073 
   26.567882 
   26.568887 
   26.569376 
   26.569592 
   26.569873 
   26.570429 
   26.571469 
   26.572806 
   26.574634 
   26.576872 
   26.579643 
   26.582928 
   26.586631 
   26.590763 
   26.595377 
    26.60041 
   26.605991 
   26.612139 
    26.61876 
   26.625991 
   26.633652 
   26.641669 
   26.650095 
   26.659009 
   26.668321 
   26.677915 
    26.68795 
    26.69814 
    26.70852 
   26.719165 
   26.729914 
   26.740748 
   26.751696 
   26.762756 
   26.773871 
   26.784836 
   26.795553 
   26.805758 
   26.815052 
   26.823014 
   26.829536 
   26.834751 
    26.83912 
   26.842923 
   26.846743 
     26.8508 
   26.855089 
   26.859658 
   26.864491 
   26.869587 
    26.87462 
   26.879393 
   26.883522 
   26.886829 
   26.889453 
   26.891533 
   26.893397 
    26.89515 
   26.896854 
   26.898384 
   26.899692 
   26.900873 
   26.901869 
   26.902566 
   26.903208 
    26.90377 
   26.904372 
   26.905182 
   26.906217 
   26.907323 
   26.908477 
    26.90962 
    26.91084 
   26.912255 
   26.913879 
    26.91568 
   26.917818 
   26.920288 
   26.923127 
   26.926218 
   26.929655 
   26.933524 
   26.937696 
   26.942023 
   26.946608 
    26.95123 
   26.955752 
   26.960145 
   26.964224 
   26.967867 
   26.970909 
   26.973267 
   26.975053 
   26.976399 
   26.977482 
   26.978533 
   26.979821 
   26.981297 
   26.982851 
    26.98431 
   26.985257 
   26.985584 
   26.985138 
   26.984085 
   26.982776 
    26.98138 
    26.98022 
   26.979162 
   26.978183 
   26.977245 
   26.976402 
   26.975565 
   26.974556 
   26.973403 
   26.972008 
    26.97036 
   26.968439 
   26.966475 
   26.964247 
   26.962137 
   26.960303 
   26.958743 
   26.957275 
   26.956019 
   26.955141 
   26.954457 
   26.953922 
   26.953657 
   26.953468 
   26.953403 
   26.953502 
   26.953749 
   26.954048 
   26.954481 
   26.955115 
   26.955875 
   26.956886 
   26.958201 
   26.959764 
     26.9616 
   26.963746 
   26.966226 
   26.969081 
   26.972308 
   26.975817 
    26.97978 
   26.983956 
   26.988331 
   26.992895 
   26.997725 
   27.002708 
   27.007795 
   27.013009 
   27.018374 
   27.023992 
   27.029911 
   27.036206 
   27.042858 
   27.049808 
   27.056933 
   27.064165 
   27.071497 
   27.078817 
   27.085958 
   27.092615 
   27.098658 
   27.103916 
   27.108317 
   27.112062 
   27.115077 
   27.117496 
   27.119437 
    27.12122 
   27.122856 
   27.124353 
   27.125758 
   27.127272 
   27.129031 
   27.131043 
   27.133324 
   27.135897 
   27.138879 
   27.142243 
    27.14593 
    27.14999 
   27.154192 
   27.158638 
   27.163256 
   27.168201 
   27.173526 
   27.179098 
   27.184937 
    27.19107 
   27.197544 
   27.204267 
   27.211411 
   27.219036 
   27.227136 
   27.235599 
   27.244415 
   27.253807 
   27.263785 
   27.274208 
   27.285066 
   27.296221 
   27.307662 
   27.319096 
   27.330348 
   27.341147 
   27.351214 
   27.360159 
   27.367507 
     27.3734 
   27.377899 
    27.38145 
   27.384341 
   27.386817 
   27.388922 
   27.391061 
   27.393209 
   27.395475 
   27.397871 
   27.400597 
   27.403608 
   27.406825 
   27.410345 
   27.414145 
   27.418324 
   27.422874 
   27.427742 
   27.432991 
   27.438472 
   27.444368 
   27.450647 
   27.457375 
   27.464599 
   27.472203 
   27.480375 
   27.489084 
   27.498253 
   27.507818 
   27.517493 
   27.527026 
   27.536295 
    27.54514 
   27.553518 
     27.5617 
   27.569961 
   27.578394 
   27.587086 
   27.596173 
   27.605526 
   27.614869 
    27.62415 
   27.633071 
   27.641272 
   27.648344 
   27.653784 
   27.657144 
   27.658291 
   27.657249 
   27.654171 
   27.649452 
   27.643757 
   27.637524 
   27.631265 
   27.625067 
   27.619078 
   27.613255 
   27.607519 
   27.602112 
   27.597086 
   27.592406 
   27.588094 
   27.584252 
   27.581014 
   27.578262 
    27.57616 
   27.574709 
   27.573905 
   27.573589 
   27.573937 
   27.575058 
   27.576943 
   27.579454 
   27.582671 
   27.586598 
   27.591166 
   27.596428 
   27.602263 
   27.608687 
   27.615643 
   27.623156 
   27.631023 
   27.639305 
   27.647767 
   27.656266 
   27.664616 
   27.672664 
   27.680442 
   27.687638 
   27.694276 
   27.699998 
   27.704732 
   27.708304 
   27.710599 
   27.711581 
   27.711467 
    27.71063 
   27.709416 
   27.708016 
   27.706631 
   27.705319 
   27.704325 
   27.703733 
   27.703611 
   27.703976 
   27.705054 
   27.706678 
   27.708993 
   27.712098 
   27.715778 
   27.719829 
   27.724134 
   27.728292 
   27.731928 
   27.734813 
   27.737054 
   27.739028 
   27.741247 
   27.743933 
   27.747177 
   27.751123 
   27.755865 
    27.76135 
   27.767525 
   27.774375 
   27.781864 
   27.789832 
   27.798058 
   27.806433 
   27.814507 
   27.821936 
   27.828079 
   27.832178 
   27.833662 
    27.83227 
   27.828189 
   27.821994 
   27.814182 
   27.805261 
   27.795737 
   27.785868 
   27.776087 
   27.766499 
   27.757295 
   27.748671 
   27.740699 
   27.733492 
   27.726802 
   27.720818 
   27.715575 
    27.71104 
   27.707385 
   27.704607 
   27.702601 
   27.701337 
   27.700684 
   27.700694 
   27.701543 
   27.702958 
    27.70502 
    27.70763 
   27.710681 
   27.714172 
   27.718154 
   27.722584 
   27.727463 
   27.732713 
   27.738279 
   27.744169 
   27.750206 
   27.756374 
   27.762628 
   27.768811 
   27.774635 
   27.779903 
   27.784416 
   27.788124 
    27.79095 
   27.792935 
   27.794257 
    27.79507 
   27.795608 
   27.795817 
    27.79566 
   27.795081 
   27.793782 
    27.79172 
   27.789038 
   27.786017 
   27.783057 
    27.78031 
   27.778132 
   27.776523 
   27.775717 
   27.775739 
   27.776542 
   27.778268 
    27.78089 
   27.784306 
   27.788534 
   27.793514 
   27.799095 
   27.805366 
   27.812227 
   27.819667 
   27.827384 
   27.835137 
   27.842537 
   27.849289 
   27.855133 
   27.860024 
   27.863859 
    27.86678 
   27.868664 
   27.869242 
   27.868518 
   27.866662 
   27.863645 
   27.859665 
    27.85469 
   27.848898 
   27.842326 
   27.834951 
   27.826811 
   27.818268 
     27.8097 
   27.801498 
   27.793949 
   27.787055 
   27.780811 
   27.775448 
   27.770796 
   27.766981 
   27.763967 
    27.76161 
   27.759984 
    27.75896 
   27.758276 
   27.757934 
   27.757827 
   27.757591 
    27.75706 
   27.756075 
   27.754743 
   27.753071 
   27.751186 
    27.74925 
   27.747228 
   27.745216 
    27.74331 
   27.741445 
   27.739515 
   27.737716 
   27.735983 
   27.734373 
   27.733062 
   27.731758 
   27.730735 
   27.729996 
   27.729654 
   27.729663 
   27.729898 
   27.730395 
   27.730988 
   27.731483 
   27.731702 
   27.731391 
   27.730666 
   27.729704 
   27.728713 
   27.727816 
   27.727191 
   27.726892 
   27.727047 
   27.727645 
   27.728771 
   27.730512 
    27.73279 
   27.735779 
   27.739245 
   27.743242 
   27.747719 
   27.752601 
   27.757659 
   27.762731 
   27.767611 
   27.772114 
   27.776084 
   27.779529 
    27.78251 
   27.785307 
   27.788038 
   27.790705 
   27.793449 
   27.796293 
   27.799144 
   27.801939 
   27.804638 
   27.807271 
   27.809812 
   27.812133 
   27.814256 
   27.816197 
   27.817851 
   27.819236 
     27.8205 
   27.821904 
   27.823542 
   27.825633 
   27.828281 
   27.831493 
   27.835343 
   27.839951 
    27.84532 
   27.851162 
   27.857458 
   27.864245 
   27.871172 
   27.877847 
   27.884283 
   27.890059 
   27.895545 
     27.9008 
   27.905852 
   27.910398 
   27.914178 
   27.916781 
   27.918003 
   27.917959 
   27.916727 
   27.914587 
   27.911644 
   27.908014 
   27.903804 
   27.899254 
   27.894585 
   27.889878 
   27.885351 
   27.881113 
   27.877172 
   27.873676 
   27.870715 
   27.868315 
   27.866501 
   27.865034 
   27.863602 
    27.86198 
   27.859866 
   27.857022 
   27.853347 
   27.849304 
   27.845007 
   27.840774 
    27.83667 
    27.83271 
   27.828745 
   27.824761 
   27.820591 
   27.816387 
    27.81223 
   27.808288 
   27.804707 
   27.801625 
    27.79893 
   27.796707 
   27.794835 
   27.793559 
    27.79282 
    27.79254 
   27.792541 
   27.792858 
    27.79339 
   27.794159 
   27.795146 
   27.796167 
   27.797189 
   27.798134 
   27.798889 
    27.79948 
   27.799819 
   27.799743 
   27.799354 
    27.79838 
   27.796656 
   27.794253 
   27.791295 
    27.78815 
   27.785085 
   27.782372 
   27.780151 
   27.778431 
   27.777233 
   27.776725 
   27.776617 
   27.777023 
   27.777861 
   27.779253 
   27.781044 
   27.783285 
     27.7859 
   27.788772 
   27.791746 
   27.794417 
   27.796711 
   27.798044 
   27.798311 
   27.797389 
   27.795382 
   27.792476 
   27.788987 
   27.785246 
   27.781419 
   27.777458 
    27.77349 
   27.769478 
   27.765229 
   27.760928 
   27.756485 
   27.751793 
   27.746917 
   27.741975 
      27.737 
   27.732042 
   27.727113 
   27.722403 
   27.717983 
   27.713807 
   27.710025 
   27.706583 
   27.703539 
   27.700803 
   27.698426 
   27.696489 
   27.694947 
   27.693656 
    27.69282 
   27.692366 
   27.692362 
   27.692587 
   27.693215 
   27.694062 
   27.695232 
    27.69657 
   27.698324 
   27.700381 
   27.702774 
   27.705618 
   27.708918 
   27.712698 
   27.716866 
   27.721588 
   27.726821 
   27.732469 
   27.738559 
   27.744823 
   27.751296 
   27.757853 
   27.764118 
   27.770093 
   27.775577 
   27.780474 
   27.784728 
   27.788506 
   27.791839 
   27.794938 
   27.798022 
   27.801252 
    27.80462 
   27.808188 
   27.811935 
    27.81565 
   27.819191 
   27.822375 
   27.825199 
   27.827422 
   27.828996 
     27.8302 
   27.830976 
    27.83117 
   27.830845 
   27.829931 
   27.828594 
   27.827007 
   27.825304 
   27.823659 
    27.82245 
   27.821613 
   27.821211 
   27.821197 
   27.821682 
   27.822564 
   27.823827 
   27.825564 
   27.827769 
    27.83045 
   27.833706 
   27.837443 
   27.841515 
   27.845969 
   27.850643 
   27.855344 
   27.860163 
   27.865128 
   27.870049 
    27.87501 
   27.880184 
   27.885377 
    27.89055 
   27.895463 
   27.899579 
   27.902719 
   27.904607 
   27.905345 
   27.905142 
   27.904494 
   27.903761 
   27.902936 
    27.90206 
   27.901266 
    27.90046 
    27.89955 
   27.898259 
   27.896542 
   27.894463 
   27.892207 
   27.889801 
   27.887306 
   27.884663 
   27.881897 
   27.878742 
    27.87525 
   27.871422 
    27.86724 
   27.862925 
   27.858584 
   27.854327 
   27.850217 
   27.846353 
   27.842738 
   27.839531 
   27.836672 
   27.834113 
   27.831686 
   27.829376 
   27.827086 
   27.825159 
   27.823549 
   27.822068 
   27.820844 
   27.819812 
   27.818886 
   27.818167 
   27.817768 
   27.817495 
   27.817397 
   27.817548 
   27.817686 
   27.817867 
   27.818012 
   27.818181 
   27.818264 
   27.818223 
   27.817984 
   27.817555 
   27.816938 
   27.816032 
   27.815087 
   27.813965 
   27.812713 
   27.811316 
    27.80995 
   27.808723 
   27.807656 
    27.80686 
   27.806463 
   27.806506 
   27.806888 
   27.807807 
   27.809229 
   27.811009 
   27.813111 
   27.815514 
   27.818156 
   27.820765 
    27.82308 
   27.824857 
    27.82586 
   27.826009 
   27.825062 
   27.822876 
   27.819638 
   27.815394 
    27.81031 
   27.804775 
     27.7988 
   27.792634 
   27.786449 
   27.780247 
   27.774141 
   27.768263 
   27.762679 
   27.757441 
   27.752512 
   27.748038 
   27.744008 
   27.740445 
   27.737435 
   27.734966 
   27.732863 
   27.731346 
    27.73031 
   27.729541 
   27.728971 
   27.728745 
   27.728666 
   27.728524 
   27.728091 
   27.727629 
   27.727019 
   27.726237 
   27.725471 
   27.724698 
   27.723903 
   27.723104 
   27.722255 
   27.721618 
   27.721168 
   27.721022 
   27.721148 
   27.721549 
   27.722124 
   27.722932 
   27.724014 
   27.725257 
   27.726621 
   27.728133 
   27.729735 
   27.731392 
   27.733129 
   27.734673 
   27.736119 
   27.737715 
   27.739492 
   27.741332 
   27.743291 
   27.745105 
   27.746776 
   27.748091 
   27.749156 
   27.750076 
   27.750852 
   27.751521 
   27.752058 
   27.752595 
   27.753101 
   27.753422 
   27.753456 
   27.753467 
     27.7534 
   27.753202 
   27.753148 
    27.75332 
     27.7536 
   27.753913 
   27.754036 
   27.753939 
   27.753622 
   27.753053 
   27.752188 
   27.751187 
   27.750098 
   27.748965 
   27.747909 
   27.746849 
   27.745704 
   27.744708 
   27.743947 
    27.74342 
   27.743268 
   27.743381 
   27.743639 
   27.744262 
   27.745167 
   27.746293 
   27.747549 
   27.748823 
   27.750086 
   27.751339 
   27.752526 
   27.754044 
   27.755896 
   27.758091 
   27.760753 
   27.763937 
   27.767851 
   27.772518 
   27.777837 
   27.783782 
   27.790318 
   27.797301 
   27.804677 
   27.812338 
   27.819927 
   27.827117 
   27.833783 
   27.839524 
   27.844084 
   27.847588 
   27.850084 
   27.851847 
   27.852937 
   27.853539 
   27.853925 
   27.854405 
    27.85491 
   27.855703 
    27.85692 
   27.858471 
   27.860515 
   27.862977 
   27.865634 
   27.868269 
   27.870598 
   27.872455 
   27.874017 
   27.875384 
   27.876728 
   27.878088 
     27.8797 
   27.881439 
   27.883469 
   27.885632 
   27.888027 
   27.890697 
   27.893719 
   27.897019 
   27.900331 
   27.903452 
   27.906351 
   27.908641 
   27.910212 
   27.911029 
   27.911391 
   27.911619 
   27.911679 
   27.911743 
   27.911808 
   27.912077 
   27.912197 
   27.912018 
   27.911686 
   27.911135 
   27.910277 
   27.909203 
   27.907978 
   27.906668 
   27.905208 
   27.903593 
   27.901988 
   27.900422 
   27.898934 
   27.897551 
   27.896424 
   27.895454 
   27.894809 
   27.894566 
   27.894782 
   27.895468 
   27.896828 
   27.898719 
   27.901345 
   27.904464 
   27.908188 
   27.912384 
   27.917048 
   27.921831 
   27.926532 
   27.930702 
   27.933894 
   27.935751 
   27.936131 
   27.935448 
   27.934063 
   27.932328 
   27.930376 
   27.928462 
   27.926664 
   27.925159 
   27.923914 
   27.922888 
   27.922093 
   27.921525 
   27.921229 
   27.921314 
   27.921767 
   27.922555 
   27.923758 
   27.925469 
   27.927591 
   27.930031 
   27.932692 
   27.935538 
    27.93845 
   27.941357 
   27.944125 
   27.946758 
   27.948894 
   27.950318 
   27.950862 
   27.950447 
   27.949292 
   27.947503 
   27.945188 
   27.942327 
   27.938925 
   27.934987 
   27.930531 
   27.925761 
   27.920772 
   27.915784 
   27.910972 
   27.906274 
   27.901652 
   27.897016 
   27.892325 
   27.887484 
   27.882586 
   27.877512 
   27.872188 
    27.86675 
   27.861256 
   27.855772 
   27.850437 
    27.84525 
   27.840319 
   27.835727 
   27.831698 
   27.828183 
   27.825266 
   27.822753 
    27.82068 
   27.818969 
   27.817635 
   27.816627 
   27.815967 
   27.815488 
   27.815235 
   27.815194 
   27.815343 
   27.815699 
   27.816352 
   27.817283 
   27.818497 
   27.819835 
   27.821311 
   27.822889 
    27.82455 
   27.826259 
   27.828017 
   27.829843 
    27.83188 
    27.83402 
   27.836226 
   27.838433 
   27.840665 
   27.842742 
   27.844624 
   27.846273 
   27.847707 
   27.848922 
   27.849869 
   27.850421 
   27.850626 
   27.850338 
   27.849719 
   27.848863 
   27.847806 
   27.846588 
   27.845315 
   27.844032 
   27.842903 
   27.841972 
    27.84133 
   27.841164 
   27.841563 
   27.842549 
   27.844201 
   27.846464 
   27.849436 
   27.852945 
   27.856785 
   27.861096 
   27.865706 
    27.87047 
    27.87556 
   27.880778 
   27.886143 
   27.891417 
    27.89674 
   27.901931 
   27.906764 
   27.911034 
   27.914372 
   27.916595 
   27.917773 
   27.918039 
   27.917394 
   27.916173 
   27.914582 
   27.912645 
   27.910495 
   27.908201 
   27.906077 
   27.903889 
   27.901794 
   27.899892 
   27.898159 
   27.896708 
   27.895506 
   27.894414 
   27.893387 
   27.892413 
   27.891435 
    27.89031 
   27.889183 
   27.888089 
   27.886859 
   27.885699 
   27.884505 
   27.883332 
   27.882276 
   27.881375 
   27.880762 
   27.880273 
   27.879833 
   27.879437 
   27.878957 
   27.878463 
   27.877876 
   27.877136 
    27.87642 
   27.875575 
   27.874546 
   27.873189 
   27.871691 
   27.869986 
   27.868113 
   27.866218 
   27.864313 
   27.862522 
   27.860902 
   27.859568 
   27.858511 
   27.857873 
   27.857649 
   27.857973 
   27.858901 
   27.860377 
   27.862374 
   27.864905 
   27.867777 
   27.871068 
   27.874691 
   27.878619 
   27.882814 
   27.887164 
   27.891623 
   27.895854 
    27.89971 
    27.90343 
      27.907 
   27.910417 
   27.913696 
    27.91679 
   27.919795 
   27.922709 
   27.925556 
   27.928329 
   27.930964 
   27.933407 
    27.93555 
   27.937554 
   27.939363 
   27.940923 
   27.942303 
   27.943068 
   27.943175 
   27.942467 
   27.940898 
   27.938508 
   27.935656 
   27.932507 
   27.929097 
   27.925705 
   27.922566 
   27.919729 
   27.917294 
   27.915273 
   27.913565 
   27.912446 
    27.91199 
   27.912025 
   27.912663 
   27.913802 
   27.915618 
   27.918127 
   27.921092 
   27.924416 
   27.928065 
   27.932072 
    27.93642 
   27.941094 
   27.946118 
   27.951334 
   27.956731 
   27.962233 
   27.967798 
   27.973503 
   27.979356 
   27.985411 
   27.991543 
   27.997664 
   28.003589 
   28.009214 
   28.014163 
   28.017837 
   28.020017 
   28.020516 
   28.019218 
    28.01631 
   28.011999 
   28.006622 
   28.000509 
   27.993858 
   27.987015 
    27.98025 
   27.973597 
   27.967309 
   27.961623 
   27.956423 
   27.952023 
    27.94844 
   27.945669 
   27.943806 
   27.942869 
   27.942885 
   27.943878 
   27.945536 
   27.947915 
   27.950768 
   27.953784 
   27.956756 
   27.959406 
   27.961466 
   27.962862 
   27.963654 
   27.963783 
   27.963505 
   27.962889 
   27.962069 
   27.961149 
   27.960073 
   27.958949 
   27.957891 
   27.956817 
   27.955805 
   27.954805 
   27.953905 
   27.953139 
   27.952469 
   27.952062 
   27.951682 
   27.951326 
   27.950947 
   27.950357 
   27.949554 
   27.948445 
   27.946958 
   27.945053 
   27.942908 
   27.940565 
   27.937968 
   27.935311 
   27.932569 
    27.92991 
   27.927321 
   27.924812 
   27.922503 
   27.920673 
   27.919271 
   27.918379 
    27.91806 
    27.91826 
   27.918984 
   27.920202 
   27.921916 
   27.924068 
   27.926467 
   27.928733 
   27.930821 
   27.932758 
   27.934323 
   27.935543 
   27.936569 
   27.937433 
   27.938058 
   27.938294 
    27.93818 
   27.937567 
   27.936632 
    27.93557 
   27.934564 
   27.933789 
   27.933305 
   27.933073 
   27.933146 
   27.933239 
    27.93318 
   27.932878 
   27.931969 
   27.930383 
    27.92799 
   27.924919 
   27.921299 
   27.917263 
   27.913169 
   27.909275 
   27.905553 
   27.902214 
   27.899324 
   27.896728 
   27.894601 
   27.892981 
   27.891736 
   27.890841 
   27.890313 
   27.890057 
   27.890083 
   27.890544 
   27.891296 
   27.892322 
   27.893669 
   27.895285 
    27.89704 
    27.89892 
   27.900948 
   27.902897 
   27.904959 
    27.90713 
   27.909628 
   27.912457 
   27.915639 
   27.919282 
   27.923384 
   27.928124 
   27.933633 
   27.940045 
   27.947213 
   27.954899 
   27.963228 
   27.972056 
   27.981283 
   27.990678 
   27.999996 
   28.008876 
   28.016931 
   28.023902 
   28.029338 
   28.033155 
   28.035335 
   28.036062 
   28.035575 
   28.034095 
   28.031637 
   28.028156 
    28.02369 
   28.018141 
   28.011792 
   28.005044 
   27.998088 
   27.991098 
   27.984296 
   27.977784 
   27.971536 
   27.965627 
    27.95985 
   27.954421 
   27.949184 
   27.944226 
   27.939509 
    27.93501 
   27.930818 
   27.927217 
   27.924057 
    27.92142 
   27.919404 
   27.918062 
   27.917417 
   27.917584 
    27.91854 
   27.920105 
   27.922384 
   27.925277 
    27.92862 
   27.932471 
   27.936715 
      27.941 
   27.945304 
   27.949407 
   27.953323 
   27.956969 
   27.960308 
   27.963419 
    27.96627 
   27.968708 
   27.970828 
   27.972676 
   27.974247 
   27.975688 
   27.976768 
   27.977747 
   27.978574 
   27.979082 
   27.979292 
   27.979252 
   27.978895 
   27.978321 
   27.977395 
   27.975833 
   27.973745 
   27.971053 
   27.968073 
   27.964933 
   27.961736 
   27.958799 
   27.956313 
   27.954401 
   27.953264 
   27.952909 
   27.953385 
   27.954699 
   27.956737 
   27.959419 
   27.962834 
   27.966773 
   27.971173 
   27.975985 
   27.981082 
   27.986373 
   27.991828 
   27.997411 
   28.003013 
   28.008415 
   28.013215 
   28.017326 
   28.020316 
   28.022046 
   28.022539 
   28.022082 
   28.020805 
   28.018887 
    28.01647 
   28.013837 
   28.011057 
   28.008194 
   28.005245 
   28.002415 
    27.99964 
    27.99696 
   27.994446 
   27.992029 
   27.989815 
   27.987805 
   27.986074 
    27.98468 
   27.983539 
   27.982767 
   27.982325 
   27.982141 
   27.982134 
   27.982244 
   27.982396 
   27.982621 
   27.982889 
   27.983288 
   27.983876 
   27.984524 
   27.985319 
   27.986388 
   27.987597 
    27.98901 
   27.990556 
   27.992124 
    27.99368 
   27.995209 
   27.996699 
   27.998139 
   27.999483 
   28.000631 
   28.001725 
   28.002867 
   28.004001 
   28.005201 
   28.006245 
   28.007249 
    28.00807 
   28.008693 
    28.00898 
   28.008697 
   28.007856 
   28.006424 
   28.004546 
   28.002397 
   28.000135 
   27.997897 
   27.995756 
   27.993819 
   27.992119 
   27.990847 
   27.990092 
   27.989707 
   27.989855 
   27.990357 
   27.991205 
   27.992286 
   27.993513 
   27.994658 
   27.995658 
   27.996327 
   27.996446 
   27.996172 
   27.995623 
   27.994886 
   27.994081 
   27.993398 
   27.992754 
    27.99226 
    27.99187 
   27.991494 
   27.991174 
   27.990819 
   27.990382 
   27.989935 
    27.98947 
   27.988952 
   27.988404 
   27.987962 
   27.987602 
   27.987327 
   27.987302 
   27.987508 
   27.987888 
    27.98842 
   27.989187 
   27.990125 
   27.991188 
   27.992536 
   27.994073 
   27.995739 
     27.9974 
   27.998982 
   28.000576 
    28.00204 
    28.00303 
   28.003723 
   28.004061 
   28.003804 
   28.003162 
   28.002185 
   28.000953 
   27.999584 
   27.998254 
   27.997112 
   27.996434 
   27.996244 
   27.996567 
    27.99717 
   27.998226 
   27.999559 
   28.001159 
   28.002702 
   28.004055 
   28.004999 
   28.005602 
   28.005724 
   28.005353 
   28.004645 
   28.003466 
   28.001899 
   27.999855 
   27.997452 
   27.994833 
   27.991897 
   27.988951 
   27.986074 
   27.983298 
    27.98074 
   27.978404 
   27.976435 
   27.974738 
   27.973508 
   27.972693 
   27.972299 
   27.972227 
   27.972343 
   27.972555 
   27.972799 
   27.973039 
   27.973324 
   27.973505 
    27.97374 
   27.974237 
   27.975003 
   27.976131 
   27.977764 
   27.980131 
   27.983114 
   27.986854 
   27.991167 
    27.99615 
   28.001579 
    28.00744 
   28.013495 
   28.019385 
   28.024898 
   28.029821 
   28.033597 
   28.036053 
   28.037248 
    28.03725 
   28.036267 
   28.034427 
   28.031835 
   28.028707 
   28.025112 
   28.021169 
   28.017058 
   28.012762 
   28.008418 
   28.003993 
   27.999561 
   27.995112 
   27.990775 
   27.986546 
   27.982414 
   27.978395 
   27.974434 
   27.970401 
   27.966392 
   27.962415 
   27.958659 
   27.955001 
   27.951691 
   27.948779 
   27.946443 
   27.944925 
   27.944089 
   27.944035 
   27.944883 
   27.946462 
   27.948769 
    27.95182 
   27.955454 
   27.959643 
   27.964276 
   27.969413 
   27.974814 
   27.980361 
   27.985905 
    27.99139 
   27.996733 
   28.001716 
    28.00626 
   28.010205 
   28.013578 
   28.016439 
   28.018655 
   28.020528 
   28.022061 
   28.023364 
   28.024435 
   28.025397 
   28.026212 
   28.026863 
   28.027452 
   28.027876 
   28.028239 
   28.028489 
   28.028433 
   28.027961 
   28.026953 
   28.025102 
   28.022494 
   28.019143 
   28.015154 
   28.010906 
   28.006586 
   28.002455 
   27.998615 
   27.995361 
   27.992643 
   27.990365 
   27.988666 
   27.987422 
   27.986563 
   27.986341 
   27.986637 
   27.987361 
   27.988506 
   27.989871 
   27.991544 
   27.993518 
   27.995538 
   27.997666 
   27.999695 
   28.001614 
    28.00325 
   28.004501 
   28.005241 
   28.005566 
    28.00532 
   28.004542 
   28.003403 
    28.00193 
   28.000117 
   27.998207 
   27.996219 
   27.994141 
   27.991954 
   27.989842 
   27.987959 
   27.986217 
   27.984589 
   27.983127 
   27.981759 
    27.98058 
   27.979643 
   27.978851 
   27.978223 
   27.977744 
   27.977456 
   27.977466 
   27.977691 
   27.978175 
   27.978937 
   27.980102 
   27.981642 
   27.983521 
   27.985939 
   27.988866 
   27.992273 
   27.996219 
   28.000625 
   28.005388 
   28.010447 
   28.015524 
   28.020376 
   28.024664 
   28.028089 
   28.030455 
   28.031784 
   28.031931 
   28.031093 
   28.029415 
   28.026971 
   28.023925 
   28.020385 
   28.016739 
   28.012916 
   28.009128 
   28.005341 
   28.001786 
    27.99844 
   27.995444 
    27.99274 
   27.990339 
     27.9881 
   27.986097 
   27.984158 
   27.982343 
   27.980638 
    27.97908 
   27.977579 
   27.976266 
    27.97511 
   27.974157 
   27.973484 
   27.973065 
   27.973018 
   27.973394 
   27.974084 
   27.975139 
   27.976561 
   27.978503 
   27.980704 
   27.983224 
   27.986195 
   27.989625 
   27.993217 
   27.997056 
   28.001149 
   28.005405 
   28.009656 
   28.013664 
   28.017504 
   28.021009 
   28.023968 
   28.026363 
   28.028055 
   28.029122 
   28.029807 
   28.030154 
   28.030117 
   28.029687 
   28.028788 
    28.02738 
   28.025528 
   28.023041 
   28.019952 
   28.016304 
   28.012334 
   28.008076 
     28.0037 
   27.999389 
   27.995183 
   27.991195 
   27.987608 
   27.984315 
   27.981321 
    27.97879 
   27.976671 
   27.975148 
   27.974256 
   27.973813 
   27.973793 
   27.974424 
    27.97558 
   27.977216 
   27.979362 
   27.982129 
   27.985505 
   27.989391 
   27.993761 
   27.998535 
   28.003626 
   28.008888 
   28.014118 
   28.019072 
   28.023703 
   28.027729 
   28.030955 
   28.033368 
   28.034976 
   28.035798 
   28.035887 
   28.035432 
   28.034542 
   28.033267 
   28.031631 
   28.029618 
   28.027443 
   28.024887 
   28.022167 
   28.019188 
   28.015952 
   28.012419 
   28.008656 
   28.004732 
   28.000547 
   27.996238 
   27.992068 
    27.98804 
   27.984309 
    27.98078 
   27.977635 
   27.974814 
    27.97262 
   27.970898 
   27.969726 
   27.969064 
   27.969233 
   27.970068 
   27.971751 
   27.974123 
   27.976997 
   27.980475 
   27.984572 
   27.989094 
   27.994059 
   27.999156 
   28.004287 
   28.009212 
   28.013747 
   28.017866 
   28.021339 
   28.024035 
   28.026083 
   28.027518 
   28.028314 
   28.028495 
   28.028239 
   28.027556 
   28.026488 
   28.025093 
   28.023495 
   28.021644 
   28.019557 
   28.017186 
   28.014646 
   28.011835 
    28.00874 
   28.005563 
   28.002187 
   27.998708 
   27.995305 
    27.99202 
   27.989044 
   27.986454 
   27.984307 
   27.982661 
   27.981584 
   27.981077 
   27.981309 
   27.982354 
   27.984091 
   27.986618 
   27.989662 
   27.993334 
   27.997444 
   28.001982 
   28.006788 
   28.011672 
   28.016555 
   28.021373 
   28.025973 
   28.030213 
   28.033958 
   28.037147 
   28.039641 
   28.041456 
   28.042533 
   28.042901 
   28.042581 
   28.041499 
   28.039764 
   28.037433 
    28.03458 
   28.031392 
   28.027915 
    28.02431 
   28.020598 
   28.016808 
    28.01319 
   28.009689 
   28.006261 
   28.002976 
   27.999829 
   27.996897 
   27.994095 
   27.991545 
   27.989294 
    27.98739 
   27.985828 
   27.984771 
   27.984381 
    27.98447 
   27.985136 
   27.986373 
   27.987997 
   27.990014 
   27.992381 
   27.995103 
   27.998012 
   28.000942 
   28.003854 
   28.006548 
   28.008981 
   28.010963 
   28.012313 
   28.012879 
   28.012774 
   28.012023 
   28.010738 
   28.009136 
   28.007354 
    28.00551 
   28.003823 
   28.002319 
   28.001013 
   27.999895 
    27.99913 
   27.998392 
   27.997767 
   27.997279 
   27.996974 
   27.996676 
    27.99655 
   27.996662 
   27.996921 
   27.997477 
   27.998293 
   27.999272 
   28.000284 
   28.001492 
   28.002804 
   28.004139 
   28.005614 
   28.007324 
   28.009179 
   28.011146 
   28.013184 
    28.01522 
   28.017286 
   28.019244 
   28.020929 
   28.022218 
   28.023007 
   28.023325 
   28.023152 
    28.02214 
   28.020176 
   28.017284 
    28.01377 
   28.009808 
   28.005596 
   28.001187 
   27.996795 
    27.99254 
   27.988637 
   27.985165 
   27.982122 
   27.979748 
   27.978003 
   27.976961 
   27.976424 
   27.976517 
   27.977165 
   27.978462 
   27.980293 
    27.98237 
    27.98479 
   27.987599 
   27.990676 
   27.994052 
   27.997577 
   28.001238 
   28.005087 
   28.008979 
   28.012891 
   28.016707 
   28.020276 
   28.023678 
   28.026834 
   28.029736 
    28.03232 
   28.034279 
   28.035603 
   28.036252 
   28.036257 
   28.035519 
   28.033928 
   28.031463 
   28.028348 
   28.024614 
   28.020442 
   28.015943 
   28.011468 
   28.007128 
    28.00302 
   27.999257 
   27.995959 
   27.993135 
   27.990884 
   27.989326 
   27.988482 
   27.988332 
   27.988893 
   27.990203 
   27.992191 
   27.994777 
   27.997815 
   28.001257 
    28.00498 
    28.00908 
   28.013438 
   28.017962 
   28.022401 
   28.026763 
   28.030851 
   28.034583 
   28.037955 
   28.040863 
   28.043193 
    28.04478 
   28.045572 
   28.045419 
    28.04432 
   28.042448 
   28.039809 
   28.036528 
   28.032782 
   28.028609 
   28.024151 
   28.019503 
   28.014695 
   28.009955 
   28.005309 
   28.000926 
   27.996878 
   27.993206 
   27.990215 
   27.987752 
    27.98585 
   27.984715 
   27.984264 
   27.984596 
   27.985626 
   27.987299 
   27.989672 
    27.99274 
   27.996536 
    28.00075 
   28.005435 
   28.010596 
   28.016031 
   28.021603 
   28.027312 
   28.032895 
   28.038144 
   28.042685 
   28.046412 
   28.049202 
   28.050868 
   28.051231 
   28.050304 
   28.048197 
    28.04503 
   28.040928 
   28.036175 
   28.030937 
   28.025413 
   28.019839 
   28.014398 
   28.009077 
   28.003917 
   27.998934 
   27.994299 
   27.989859 
   27.985812 
   27.982275 
    27.97909 
    27.97638 
   27.974162 
   27.972496 
   27.971354 
     27.9709 
   27.970942 
   27.971437 
   27.972522 
   27.974146 
   27.976377 
   27.979045 
   27.982148 
   27.985651 
   27.989469 
   27.993605 
    27.99777 
   28.001917 
   28.006073 
   28.010019 
   28.013766 
    28.01729 
   28.020359 
   28.023113 
   28.025631 
   28.027847 
   28.029868 
   28.031747 
   28.033342 
   28.034823 
   28.035973 
   28.036869 
   28.037359 
   28.037377 
   28.036758 
   28.035638 
   28.033772 
   28.031292 
   28.028282 
   28.024862 
    28.02121 
   28.017548 
   28.013933 
   28.010583 
   28.007715 
   28.005232 
   28.003172 
    28.00169 
    28.00062 
   28.000054 
   27.999975 
   28.000312 
   28.001072 
   28.002102 
   28.003436 
   28.005095 
   28.006809 
    28.00861 
   28.010364 
   28.012094 
    28.01386 
   28.015391 
   28.016708 
   28.017789 
    28.01874 
   28.019426 
   28.019951 
   28.020429 
   28.020732 
   28.020966 
   28.021188 
   28.021279 
   28.021394 
   28.021488 
   28.021523 
   28.021558 
   28.021647 
   28.021718 
    28.02175 
   28.021722 
   28.021641 
   28.021361 
   28.020826 
   28.020058 
   28.019072 
   28.018124 
   28.017263 
   28.016558 
   28.016016 
   28.015779 
    28.01576 
   28.016062 
   28.016572 
    28.01723 
   28.018004 
    28.01888 
    28.01976 
   28.020552 
   28.021201 
   28.021689 
   28.021888 
   28.021709 
   28.021095 
   28.020166 
   28.018923 
   28.017239 
   28.015332 
   28.013296 
   28.011168 
   28.008871 
   28.006683 
   28.004576 
   28.002628 
   28.001065 
   27.999756 
   27.998832 
   27.998282 
   27.998022 
   27.998115 
   27.998647 
   27.999535 
   28.000736 
   28.002277 
   28.004209 
   28.006565 
   28.009213 
   28.012125 
    28.01523 
   28.018583 
   28.022097 
   28.025682 
   28.029253 
   28.032656 
   28.035696 
   28.038312 
   28.040442 
   28.041802 
   28.042443 
   28.042527 
   28.042108 
   28.041091 
   28.039496 
   28.037475 
   28.034984 
   28.032118 
   28.028784 
   28.025204 
     28.0214 
   28.017449 
   28.013505 
   28.009695 
   28.006129 
   28.002898 
   28.000086 
   27.997711 
   27.995792 
   27.994232 
   27.993171 
   27.992773 
   27.992726 
    27.99296 
   27.993552 
   27.994576 
   27.995848 
   27.997418 
   27.999206 
   28.001128 
   28.003198 
   28.005362 
   28.007539 
   28.009639 
   28.011617 
   28.013592 
   28.015521 
    28.01723 
   28.018699 
   28.019909 
   28.020892 
   28.021657 
   28.022246 
   28.022544 
   28.022624 
   28.022359 
   28.021899 
   28.021094 
   28.019887 
   28.018465 
   28.016935 
   28.015211 
   28.013254 
   28.011103 
   28.008595 
   28.005869 
   28.003112 
   28.000487 
   27.998225 
   27.996401 
   27.994981 
   27.993924 
   27.993334 
   27.993259 
   27.993501 
   27.994062 
   27.994871 
   27.996036 
   27.997463 
   27.998948 
   28.000437 
    28.00207 
   28.003751 
   28.005536 
   28.007348 
   28.009159 
   28.010885 
   28.012478 
   28.014016 
   28.015405 
   28.016534 
   28.017398 
   28.018111 
   28.018411 
   28.018338 
   28.017864 
   28.017166 
   28.016109 
   28.014674 
   28.012958 
   28.011028 
   28.009032 
   28.007067 
   28.005286 
   28.003692 
   28.002387 
   28.001382 
   28.000943 
   28.000919 
   28.001417 
   28.002212 
   28.003213 
   28.004373 
   28.005638 
   28.006709 
   28.007472 
   28.007735 
   28.007365 
   28.006537 
   28.005396 
   28.003969 
   28.002523 
   28.001188 
   28.000144 
   27.999284 
   27.998702 
   27.998382 
   27.998475 
   27.998865 
   27.999448 
   28.000199 
    28.00107 
   28.001893 
   28.002817 
   28.003693 
   28.004381 
   28.004867 
   28.005096 
   28.005158 
   28.005052 
   28.004604 
   28.003956 
   28.003156 
   28.002229 
   28.000992 
    27.99944 
   27.997744 
   27.995888 
   27.993905 
   27.991923 
   27.990018 
   27.988215 
   27.986593 
   27.985337 
    27.98449 
   27.984062 
   27.983925 
   27.984162 
   27.984743 
    27.98564 
   27.986976 
   27.988691 
   27.990823 
   27.993267 
   27.995853 
   27.998511 
    28.00111 
   28.003567 
   28.005772 
    28.00766 
   28.009296 
   28.010631 
   28.011821 
   28.012883 
   28.013675 
   28.014312 
   28.014723 
    28.01478 
   28.014274 
   28.013358 
   28.012164 
   28.010508 
   28.008596 
   28.006306 
   28.003986 
   28.001554 
   27.999019 
   27.996297 
   27.993301 
   27.990198 
   27.987055 
   27.983971 
   27.981009 
   27.978315 
   27.975984 
   27.974097 
   27.972769 
    27.97193 
   27.971601 
    27.97188 
   27.972608 
   27.973846 
   27.975439 
   27.977245 
   27.979372 
   27.981743 
    27.98439 
   27.987246 
   27.990297 
    27.99367 
   27.997344 
   28.001289 
   28.005498 
   28.009861 
   28.014361 
    28.01873 
   28.022936 
   28.026851 
   28.030444 
   28.033552 
   28.035971 
   28.037796 
   28.038933 
     28.0394 
   28.039073 
   28.038016 
   28.036177 
   28.033606 
   28.030431 
   28.026565 
   28.022318 
   28.017819 
   28.013232 
   28.008634 
   28.004205 
   27.999969 
   27.996055 
   27.992375 
   27.989041 
   27.985972 
   27.983353 
   27.981042 
   27.979149 
    27.97768 
   27.976661 
   27.976089 
   27.975985 
   27.976271 
   27.976945 
   27.978022 
    27.97955 
   27.981444 
   27.983732 
   27.986481 
   27.989599 
   27.992978 
   27.996679 
   28.000329 
   28.003728 
   28.006937 
   28.009572 
   28.011584 
   28.012802 
   28.013256 
   28.012934 
   28.011895 
    28.01027 
   28.008289 
   28.006041 
   28.003721 
   28.001531 
    27.99947 
   27.997549 
   27.995992 
   27.994562 
   27.993416 
   27.992575 
   27.991916 
     27.9914 
   27.991052 
   27.990694 
   27.990323 
   27.989752 
    27.98903 
   27.988032 
   27.987018 
   27.986035 
   27.985082 
   27.984493 
   27.984211 
   27.984248 
   27.984648 
   27.985463 
   27.986671 
   27.988336 
   27.990334 
    27.99277 
   27.995447 
   27.998448 
   28.001633 
   28.005009 
   28.008435 
   28.011655 
   28.014902 
   28.017991 
   28.020867 
    28.02339 
   28.025446 
   28.027053 
   28.028206 
   28.028754 
   28.028736 
   28.028092 
   28.026921 
   28.025379 
   28.023242 
   28.020671 
   28.017824 
   28.014858 
   28.011923 
   28.009147 
   28.006464 
   28.003999 
   28.001762 
   27.999825 
   27.998253 
   27.997005 
   27.996081 
   27.995447 
   27.995072 
   27.995005 
    27.99519 
   27.995567 
   27.996194 
   27.997049 
   27.998157 
   27.999644 
   28.001467 
   28.003369 
   28.005378 
   28.007541 
   28.009764 
    28.01205 
   28.014299 
   28.016274 
   28.018069 
   28.019662 
   28.021105 
   28.022338 
   28.023439 
    28.02434 
   28.025176 
    28.02595 
   28.026692 
   28.027316 
   28.027885 
   28.028289 
   28.028321 
   28.028102 
   28.027388 
   28.026293 
   28.024861 
   28.023101 
   28.021107 
   28.018879 
    28.01647 
   28.013965 
   28.011377 
   28.008859 
   28.006453 
    28.00421 
   28.002186 
   28.000491 
   27.999267 
   27.998365 
   27.998069 
   27.998165 
   27.998675 
   27.999593 
   28.001016 
   28.002766 
   28.004809 
   28.007097 
    28.00956 
   28.012137 
   28.014574 
   28.016669 
   28.018433 
   28.020026 
   28.021322 
   28.022369 
   28.023221 
   28.023818 
   28.024184 
   28.024318 
   28.024184 
   28.023817 
   28.023005 
   28.021665 
     28.0198 
    28.01753 
    28.01495 
   28.012027 
   28.008978 
   28.005732 
   28.002526 
   27.999396 
   27.996411 
   27.993662 
   27.991127 
   27.988887 
   27.986975 
   27.985363 
    27.98412 
   27.983229 
   27.982875 
    27.98291 
   27.983555 
   27.984677 
    27.98633 
   27.988482 
   27.991215 
   27.994509 
   27.998169 
   28.002195 
   28.006507 
   28.011067 
   28.015879 
   28.020714 
   28.025396 
   28.029926 
   28.034032 
   28.037645 
    28.04073 
   28.043413 
   28.045609 
   28.047291 
   28.048363 
   28.048691 
   28.048319 
   28.047336 
   28.045551 
   28.042998 
   28.039689 
    28.03581 
   28.031511 
   28.026964 
    28.02234 
   28.017788 
   28.013413 
   28.009282 
   28.005333 
   28.001707 
   27.998316 
   27.995189 
   27.992352 
   27.989772 
   27.987549 
   27.985765 
   27.984404 
   27.983613 
   27.983275 
   27.983533 
   27.984378 
   27.985821 
   27.987877 
   27.990546 
   27.993745 
   27.997446 
   28.001589 
   28.005912 
   28.010446 
   28.015152 
   28.019924 
   28.024569 
   28.028966 
   28.033097 
   28.036923 
   28.040196 
   28.042835 
   28.044532 
   28.045368 
    28.04529 
   28.044219 
   28.042143 
   28.039102 
   28.035269 
   28.030766 
   28.025902 
    28.02073 
   28.015396 
   28.010197 
   28.005169 
   28.000318 
   27.995759 
   27.991655 
   27.988106 
   27.985115 
   27.982766 
   27.981062 
   27.980083 
   27.979762 
   27.980214 
   27.981396 
   27.983175 
   27.985621 
   27.988657 
   27.992165 
   27.996087 
   28.000395 
   28.004928 
   28.009658 
   28.014294 
   28.018807 
   28.023174 
    28.02731 
   28.030989 
   28.034208 
   28.036699 
   28.038414 
   28.039513 
   28.039844 
   28.039396 
   28.038182 
   28.036412 
   28.034111 
   28.031373 
   28.028172 
   28.024584 
   28.020696 
    28.01646 
   28.011893 
    28.00735 
    28.00289 
   27.998513 
   27.994479 
   27.990842 
   27.987551 
   27.984806 
    27.98283 
   27.981521 
   27.980835 
   27.980768 
   27.981369 
   27.982522 
   27.984359 
   27.986922 
   27.989854 
   27.993248 
    27.99692 
    28.00086 
   28.005061 
   28.009355 
   28.013758 
   28.018043 
   28.022064 
   28.025704 
   28.028933 
   28.031559 
   28.033518 
   28.034583 
   28.034803 
   28.034297 
   28.033167 
   28.031448 
   28.029236 
   28.026605 
   28.023813 
   28.020957 
   28.018158 
    28.01551 
   28.012957 
   28.010583 
   28.008242 
   28.005939 
   28.003498 
   28.000938 
   27.998381 
   27.995826 
   27.993315 
   27.991117 
   27.989269 
   27.987907 
   27.986973 
   27.986478 
   27.986234 
   27.986398 
   27.987023 
   27.987887 
    27.98904 
   27.990331 
   27.991755 
   27.993315 
   27.995112 
   27.997063 
   27.999026 
   28.000963 
   28.002851 
   28.004781 
   28.006618 
   28.008299 
   28.009736 
   28.010826 
   28.011423 
   28.011521 
   28.011242 
   28.010489 
   28.009225 
    28.00759 
   28.005722 
   28.003692 
   28.001566 
    27.99952 
   27.997731 
   27.996365 
    27.99536 
   27.994853 
   27.994848 
   27.995283 
   27.996169 
   27.997549 
   27.999206 
   28.001019 
   28.002946 
    28.00492 
   28.006698 
    28.00821 
   28.009318 
   28.009843 
   28.009891 
   28.009599 
   28.009101 
   28.008585 
   28.008018 
   28.007439 
   28.006953 
    28.00647 
   28.006129 
   28.005973 
   28.005995 
   28.006226 
   28.006556 
   28.007099 
   28.007594 
   28.008146 
   28.008609 
   28.008952 
   28.009024 
   28.008721 
   28.007902 
   28.006619 
   28.004723 
   28.002283 
    27.99932 
   27.996103 
   27.992874 
   27.989701 
   27.986606 
   27.983596 
   27.980861 
   27.978382 
   27.976228 
    27.97438 
    27.97295 
   27.971928 
   27.971094 
   27.970641 
   27.970583 
   27.970876 
   27.971511 
   27.972551 
   27.973851 
   27.975352 
   27.977102 
   27.979132 
   27.981379 
   27.983823 
   27.986503 
   27.989456 
   27.992698 
   27.996201 
   27.999968 
   28.004127 
   28.008625 
   28.013393 
   28.018376 
   28.023527 
   28.028751 
   28.033862 
   28.038761 
   28.043175 
   28.046785 
   28.049245 
   28.050385 
   28.050124 
   28.048649 
   28.046013 
   28.042531 
   28.038338 
   28.033555 
   28.028433 
   28.023163 
   28.017857 
   28.012715 
   28.007905 
   28.003343 
   27.999063 
   27.994999 
   27.991133 
   27.987583 
    27.98433 
   27.981402 
   27.978726 
   27.976158 
   27.973764 
   27.971493 
    27.96937 
   27.967351 
   27.965476 
   27.963751 
   27.962299 
    27.96124 
   27.960591 
   27.960451 
   27.960804 
   27.961592 
   27.962864 
   27.964702 
   27.967018 
   27.969746 
   27.972777 
   27.976018 
   27.979444 
   27.983037 
   27.986572 
   27.989939 
   27.992856 
   27.995234 
   27.996835 
   27.997629 
   27.997843 
    27.99741 
   27.996421 
   27.994977 
   27.993324 
   27.991453 
   27.989427 
   27.987413 
    27.98546 
   27.983701 
     27.9822 
   27.980842 
    27.97969 
   27.978688 
   27.977918 
   27.977313 
   27.976984 
    27.97686 
   27.976979 
   27.977402 
   27.978195 
   27.979363 
   27.981079 
   27.983399 
   27.986273 
   27.989884 
   27.994177 
    27.99917 
   28.004721 
    28.01064 
   28.016756 
   28.022618 
   28.028002 
   28.032495 
   28.036286 
    28.03949 
   28.042075 
   28.044215 
   28.045775 
   28.046796 
   28.047082 
   28.046583 
   28.045232 
   28.043123 
   28.040179 
   28.036476 
   28.031981 
   28.026869 
   28.021224 
   28.015144 
   28.008915 
   28.002406 
   27.995858 
    27.98933 
   27.982942 
   27.976681 
   27.970764 
   27.965158 
   27.959817 
   27.954901 
   27.950515 
   27.946677 
   27.943344 
   27.940562 
   27.938395 
   27.937018 
   27.936454 
   27.936718 
   27.937941 
   27.939912 
   27.942613 
   27.945967 
   27.949972 
    27.95461 
   27.959749 
   27.965295 
   27.971123 
   27.977002 
   27.982869 
   27.988451 
   27.993586 
   27.998342 
    28.00263 
    28.00636 
   28.009429 
   28.011648 
   28.012987 
   28.013456 
   28.013082 
   28.011913 
    28.00993 
   28.007278 
   28.004048 
   28.000401 
   27.996492 
    27.99238 
   27.988126 
   27.983764 
   27.979467 
   27.975355 
   27.971574 
   27.968095 
   27.965112 
   27.962598 
   27.960698 
   27.959361 
   27.958662 
    27.95874 
   27.959518 
   27.961142 
   27.963386 
   27.966476 
    27.97023 
   27.974534 
   27.979385 
   27.984633 
   27.990296 
   27.996273 
   28.002538 
   28.008947 
   28.015556 
    28.02207 
   28.028396 
   28.034438 
   28.040079 
   28.045174 
   28.049626 
   28.053142 
   28.055476 
   28.056381 
   28.055558 
   28.053035 
   28.048804 
   28.043251 
   28.036727 
   28.029574 
   28.022159 
   28.014597 
   28.007187 
    28.00015 
   27.993549 
   27.987456 
   27.981953 
   27.976976 
   27.972348 
   27.968074 
   27.964225 
    27.96094 
    27.95816 
   27.956108 
   27.954708 
   27.953917 
   27.953889 
   27.954535 
   27.955871 
   27.957728 
   27.960101 
   27.962949 
   27.966101 
   27.969632 
    27.97347 
   27.977289 
   27.981105 
   27.984763 
   27.988149 
   27.991264 
   27.993948 
   27.996221 
    27.99805 
   27.999301 
   27.999987 
   28.000154 
   27.999986 
   27.999529 
   27.998747 
   27.997579 
   27.996075 
   27.994312 
   27.992272 
   27.990105 
   27.987956 
     27.9858 
   27.983782 
   27.981937 
   27.980313 
   27.979056 
   27.978092 
   27.977532 
   27.977292 
   27.977447 
    27.97815 
    27.97927 
   27.980924 
   27.982978 
   27.985575 
   27.988568 
   27.991914 
   27.995544 
   27.999488 
   28.003596 
   28.007907 
     28.0123 
   28.016664 
   28.020906 
   28.025051 
   28.029118 
   28.032721 
   28.035669 
   28.037775 
   28.039034 
   28.039097 
   28.038075 
   28.035997 
    28.03305 
   28.029429 
    28.02534 
   28.021058 
   28.016708 
   28.012451 
   28.008499 
   28.004788 
   28.001299 
   27.998234 
   27.995461 
   27.993108 
   27.991233 
   27.989606 
   27.988325 
   27.987408 
   27.986815 
   27.986559 
   27.986529 
   27.986875 
   27.987597 
   27.988536 
   27.989794 
   27.991394 
   27.993195 
   27.995032 
   27.996851 
   27.998616 
   28.000348 
    28.00198 
   28.003501 
   28.004898 
     28.0061 
   28.007065 
   28.007757 
    28.00814 
   28.008164 
   28.007962 
   28.007446 
   28.006744 
   28.005831 
   28.004984 
   28.004172 
   28.003408 
   28.002838 
   28.002433 
   28.002295 
    28.00222 
   28.002157 
   28.002167 
   28.002213 
   28.002294 
   28.002446 
   28.002683 
    28.00301 
    28.00362 
   28.004569 
   28.005813 
    28.00741 
   28.009234 
   28.011183 
   28.012994 
   28.014593 
    28.01587 
   28.016845 
   28.017316 
   28.017421 
   28.017123 
   28.016356 
   28.015334 
   28.014109 
   28.012525 
   28.010762 
   28.008796 
   28.006643 
   28.004304 
   28.001706 
   27.998939 
   27.996075 
   27.993224 
   27.990476 
   27.987789 
   27.985395 
   27.983361 
   27.981673 
   27.980399 
   27.979643 
   27.979544 
   27.980059 
   27.981093 
   27.982698 
   27.984994 
   27.987705 
   27.990818 
   27.994293 
   27.998032 
   28.001968 
   28.006017 
   28.009926 
   28.013647 
   28.017102 
   28.020376 
   28.023399 
   28.026182 
   28.028761 
   28.030965 
   28.032816 
    28.03418 
   28.034998 
   28.035155 
   28.034607 
   28.033415 
   28.031694 
   28.029544 
    28.02714 
    28.02443 
   28.021478 
   28.018425 
   28.015354 
   28.012361 
    28.00951 
    28.00669 
   28.003952 
    28.00139 
   27.999139 
   27.997108 
   27.995418 
   27.994066 
   27.993184 
   27.992754 
    27.99287 
   27.993476 
   27.994559 
   27.996209 
   27.998138 
   28.000295 
   28.002476 
   28.004648 
   28.006753 
    28.00861 
   28.010351 
   28.011816 
   28.013104 
   28.014343 
   28.015497 
   28.016642 
   28.017596 
   28.018514 
   28.019406 
   28.020261 
   28.020986 
   28.021635 
   28.022158 
   28.022755 
   28.023246 
   28.023619 
   28.023611 
   28.023191 
   28.022339 
   28.020931 
   28.019005 
   28.016577 
   28.013632 
   28.010492 
   28.007258 
   28.004019 
   28.000869 
   27.997948 
   27.995358 
   27.993212 
   27.991646 
   27.990534 
   27.989969 
   27.989969 
   27.990413 
   27.991322 
   27.992484 
   27.994018 
   27.995705 
   27.997585 
   27.999501 
   28.001345 
   28.003124 
   28.004756 
   28.006279 
    28.00768 
   28.008977 
   28.010217 
   28.011366 
   28.012429 
   28.013514 
   28.014661 
   28.016017 
   28.017532 
   28.019105 
   28.020746 
    28.02231 
   28.023651 
    28.02467 
   28.025171 
   28.025125 
   28.024398 
   28.022909 
   28.020686 
   28.017935 
   28.014798 
    28.01133 
   28.007686 
   28.004099 
   28.000598 
   27.997193 
   27.993962 
   27.991049 
   27.988466 
     27.9862 
   27.984202 
   27.982643 
   27.981536 
   27.980886 
   27.980801 
   27.981079 
   27.981743 
   27.982792 
   27.984175 
   27.985857 
   27.987781 
    27.98983 
   27.992051 
   27.994271 
    27.99638 
   27.998415 
   28.000254 
   28.001914 
   28.003456 
   28.004831 
   28.006104 
    28.00736 
   28.008615 
   28.009951 
   28.011454 
   28.013131 
   28.015012 
   28.017066 
   28.019182 
   28.021449 
   28.023709 
   28.025748 
   28.027463 
   28.028667 
   28.029221 
   28.028912 
   28.027964 
   28.026402 
   28.024319 
   28.021855 
   28.019074 
   28.016228 
    28.01338 
   28.010748 
   28.008422 
   28.006281 
   28.004453 
   28.002953 
    28.00183 
   28.001049 
   28.000649 
   28.000753 
   28.001322 
   28.002351 
   28.003702 
   28.005443 
   28.007351 
   28.009453 
   28.011586 
   28.013868 
   28.016043 
   28.018047 
   28.019782 
   28.021141 
   28.022266 
     28.0231 
   28.023679 
   28.023932 
   28.023963 
   28.023902 
   28.023806 
    28.02362 
   28.023197 
   28.022681 
   28.021881 
    28.02096 
   28.019878 
   28.018689 
   28.017459 
   28.016156 
   28.014864 
   28.013625 
   28.012365 
    28.01113 
   28.009788 
   28.008287 
   28.006628 
   28.004949 
   28.003206 
   28.001647 
   28.000249 
   27.999251 
   27.998659 
   27.998399 
   27.998615 
   27.999172 
   28.000152 
   28.001472 
   28.003018 
   28.004689 
   28.006389 
   28.008051 
   28.009576 
   28.010984 
   28.012189 
   28.012971 
   28.013203 
   28.012949 
    28.01239 
   28.011505 
   28.010259 
   28.008749 
   28.007099 
   28.005232 
   28.003158 
   28.001111 
   27.998962 
   27.996875 
   27.994802 
   27.992915 
   27.991304 
    27.99008 
   27.989122 
   27.988522 
   27.988281 
   27.988483 
   27.989116 
   27.990108 
   27.991439 
   27.993084 
    27.99526 
   27.997884 
   28.000695 
   28.003606 
   28.006456 
   28.009207 
   28.011619 
   28.013842 
   28.015802 
   28.017491 
   28.019078 
   28.020422 
   28.021535 
   28.022428 
   28.022969 
   28.023106 
   28.022863 
   28.022162 
    28.02099 
   28.019245 
   28.017058 
   28.014312 
   28.011026 
   28.007149 
   28.002855 
   27.998332 
   27.993695 
   27.989133 
   27.984641 
   27.980364 
   27.976385 
   27.972903 
   27.969859 
   27.967277 
   27.965221 
   27.963861 
   27.963114 
   27.962911 
   27.963247 
    27.96419 
   27.965769 
   27.967932 
   27.970672 
   27.974051 
   27.978042 
   27.982568 
   27.987666 
   27.993339 
   27.999559 
   28.006298 
    28.01329 
   28.020438 
   28.027505 
   28.034448 
   28.040921 
   28.046721 
   28.051643 
    28.05547 
   28.057821 
   28.058741 
   28.058335 
   28.056389 
   28.053189 
   28.049066 
   28.044179 
   28.038559 
   28.032391 
   28.025921 
   28.019291 
   28.012541 
   28.005833 
   27.999457 
    27.99345 
   27.987951 
   27.982954 
   27.978413 
   27.974289 
   27.970826 
   27.967996 
   27.965851 
   27.964463 
   27.963633 
   27.963415 
   27.963848 
   27.964862 
   27.966554 
   27.968673 
   27.971309 
    27.97443 
   27.978019 
    27.98191 
   27.986266 
   27.990918 
   27.995744 
   28.000662 
   28.005658 
   28.010481 
   28.015098 
   28.019504 
   28.023776 
   28.027727 
   28.031318 
   28.034523 
   28.037359 
   28.039829 
   28.041656 
   28.042795 
   28.043304 
   28.042956 
   28.041587 
   28.039284 
   28.036224 
   28.032255 
   28.027483 
   28.022256 
   28.016758 
   28.011144 
   28.005519 
   28.000091 
   27.995018 
   27.990377 
   27.986049 
   27.982314 
   27.979169 
   27.976617 
   27.974721 
   27.973475 
   27.972686 
   27.972449 
    27.97265 
   27.973345 
   27.974491 
   27.976035 
   27.978003 
   27.980292 
   27.983004 
   27.985981 
   27.989127 
   27.992164 
   27.995331 
   27.998462 
   28.001641 
   28.004787 
   28.007918 
   28.010936 
   28.013877 
   28.016818 
   28.019765 
   28.022591 
   28.025362 
    28.02808 
   28.030708 
   28.033201 
   28.035413 
   28.037239 
   28.038463 
   28.038945 
   28.038703 
   28.037612 
   28.035617 
   28.032795 
   28.029266 
   28.025139 
   28.020649 
   28.015908 
   28.011159 
   28.006406 
   28.001852 
   27.997581 
   27.993808 
   27.990455 
   27.987457 
   27.985055 
   27.983183 
   27.981799 
   27.980894 
   27.980445 
   27.980402 
   27.980698 
   27.981351 
   27.982163 
   27.983217 
   27.984211 
   27.985195 
   27.986219 
   27.987355 
   27.988502 
   27.989787 
   27.991288 
   27.992742 
   27.994351 
   27.996094 
   27.997851 
     27.9999 
   28.002053 
    28.00444 
   28.006846 
   28.009331 
   28.011854 
   28.014387 
   28.016841 
   28.019087 
   28.021003 
   28.022558 
    28.02365 
   28.024437 
   28.024878 
   28.025042 
    28.02503 
   28.024702 
   28.023987 
    28.02282 
   28.021352 
   28.019594 
   28.017698 
   28.015715 
   28.013895 
   28.012174 
   28.010662 
   28.009392 
   28.008357 
   28.007372 
   28.006412 
   28.005588 
    28.00483 
    28.00415 
   28.003423 
   28.002619 
   28.001792 
   28.001075 
   28.000434 
   27.999978 
   27.999747 
   27.999765 
   28.000138 
   28.000804 
   28.001807 
   28.003129 
   28.004617 
   28.006163 
   28.007755 
   28.009323 
   28.010713 
   28.011911 
   28.012957 
   28.013742 
   28.014211 
   28.014551 
   28.014813 
   28.015181 
   28.015564 
   28.016004 
   28.016618 
   28.017551 
   28.018659 
   28.020018 
   28.021576 
   28.023122 
   28.024667 
   28.026087 
   28.027351 
   28.028295 
   28.028903 
   28.029125 
   28.029079 
   28.028713 
   28.028205 
   28.027624 
   28.027019 
   28.026274 
    28.02543 
   28.024417 
   28.023196 
    28.02191 
   28.020612 
   28.019197 
   28.017917 
   28.016773 
   28.015692 
   28.014744 
   28.013951 
   28.013242 
   28.012466 
   28.011612 
   28.010664 
   28.009687 
   28.008533 
   28.007266 
   28.005883 
    28.00433 
   28.002697 
   28.001161 
    27.99968 
   27.998358 
   27.997236 
   27.996379 
   27.995934 
   27.995972 
   27.996448 
   27.997295 
   27.998482 
   28.000088 
   28.002159 
   28.004677 
     28.0075 
   28.010562 
   28.013756 
   28.017046 
   28.020358 
   28.023566 
   28.026541 
   28.029226 
   28.031576 
   28.033535 
   28.035186 
   28.036551 
   28.037538 
   28.038175 
   28.038504 
   28.038362 
   28.037898 
   28.037119 
   28.035962 
   28.034577 
   28.032939 
   28.030876 
   28.028348 
   28.025551 
    28.02238 
   28.018976 
   28.015397 
   28.011724 
   28.008017 
    28.00445 
   28.001024 
   27.997665 
   27.994565 
   27.991763 
   27.989347 
   27.987448 
    27.98604 
   27.985155 
   27.984865 
   27.985115 
   27.985898 
   27.987298 
   27.989147 
   27.991564 
    27.99436 
    27.99739 
   28.000671 
   28.003949 
   28.007161 
   28.010309 
   28.013245 
   28.015904 
   28.018425 
   28.020813 
   28.023133 
   28.025349 
   28.027273 
   28.028892 
   28.030044 
   28.030704 
   28.030712 
   28.030192 
   28.029096 
   28.027419 
   28.025251 
   28.022567 
   28.019604 
   28.016487 
   28.013378 
    28.01032 
   28.007261 
   28.004387 
   28.001695 
   27.999141 
   27.996978 
   27.995071 
   27.993456 
   27.992223 
   27.991378 
   27.990865 
   27.990947 
   27.991548 
   27.992663 
   27.994332 
   27.996395 
    27.99895 
   28.001957 
   28.005259 
   28.008813 
   28.012709 
   28.016794 
    28.02092 
   28.024953 
   28.028828 
   28.032428 
   28.035569 
   28.038273 
   28.040378 
   28.041978 
    28.04307 
   28.043474 
   28.043337 
   28.042559 
   28.041111 
   28.038967 
   28.036187 
   28.033084 
   28.029803 
   28.026237 
    28.02263 
   28.018894 
   28.015204 
   28.011731 
   28.008425 
   28.005368 
   28.002668 
   28.000408 
   27.998704 
   27.997224 
   27.996084 
   27.995516 
   27.995329 
   27.995523 
   27.996117 
    27.99717 
   27.998527 
   28.000246 
   28.002396 
   28.004857 
   28.007727 
   28.010845 
   28.014335 
   28.018065 
    28.02198 
   28.026038 
   28.030204 
   28.034376 
   28.038466 
   28.042223 
   28.045798 
   28.048923 
   28.051441 
   28.053235 
   28.054376 
   28.054731 
   28.054324 
   28.053177 
   28.051302 
   28.048723 
   28.045583 
   28.042106 
   28.038088 
   28.033856 
   28.029444 
   28.025094 
   28.020689 
   28.016509 
   28.012585 
   28.008939 
   28.005592 
   28.002576 
   27.999931 
   27.997544 
   27.995532 
    27.99391 
   27.992745 
   27.992031 
    27.99175 
   27.991961 
     27.9927 
   27.994092 
   27.996048 
   27.998618 
   28.001797 
   28.005567 
   28.009953 
   28.014759 
   28.019768 
   28.024946 
   28.030097 
    28.03512 
   28.039936 
   28.044344 
   28.048127 
   28.051349 
   28.053714 
   28.055137 
   28.055728 
   28.055427 
   28.054278 
   28.052366 
   28.049618 
   28.046106 
   28.041973 
   28.037369 
   28.032265 
   28.026768 
   28.021048 
   28.015425 
   28.009851 
    28.00443 
   27.999291 
   27.994504 
    27.99019 
   27.986255 
   27.982828 
    27.97993 
    27.97751 
    27.97564 
   27.974427 
   27.973761 
   27.973835 
   27.974668 
   27.976331 
   27.978775 
   27.981865 
   27.985658 
   27.990039 
   27.994902 
   28.000228 
   28.005914 
   28.011702 
   28.017304 
   28.022666 
   28.027586 
   28.031902 
   28.035747 
   28.038985 
   28.041604 
   28.043565 
    28.04485 
   28.045489 
   28.045413 
   28.044648 
   28.043256 
   28.041208 
   28.038548 
   28.035136 
   28.031017 
   28.026214 
   28.020798 
   28.014987 
   28.008816 
   28.002542 
   27.996306 
   27.990129 
    27.98422 
   27.978639 
   27.973553 
   27.969126 
   27.965326 
   27.962294 
   27.960065 
   27.958727 
   27.958186 
    27.95846 
   27.959594 
   27.961572 
   27.964402 
   27.968054 
   27.972497 
   27.977739 
   27.983661 
   27.990141 
   27.997047 
   28.004229 
   28.011577 
   28.018867 
   28.026107 
   28.033077 
   28.039599 
   28.045519 
   28.050761 
   28.055209 
   28.058684 
   28.060988 
   28.061984 
   28.061592 
   28.059864 
   28.056816 
   28.052602 
   28.047464 
    28.04147 
   28.034804 
   28.027729 
   28.020425 
   28.013082 
   28.005742 
   27.998731 
   27.992093 
   27.986072 
   27.980758 
   27.976056 
   27.972188 
   27.969208 
   27.966874 
   27.965418 
   27.964879 
   27.965286 
    27.96657 
   27.968605 
    27.97149 
    27.97516 
   27.979625 
    27.98471 
   27.990488 
   27.996764 
    28.00349 
   28.010419 
   28.017585 
   28.024885 
   28.032028 
   28.038877 
   28.045315 
   28.050896 
   28.055542 
   28.059066 
     28.0615 
   28.062749 
    28.06283 
   28.061693 
   28.059392 
   28.056018 
   28.051549 
    28.04617 
   28.040081 
   28.033447 
   28.026429 
   28.019129 
    28.01183 
   28.004734 
    27.99807 
   27.992063 
   27.986662 
   27.982124 
   27.978362 
   27.975436 
   27.973365 
   27.972205 
   27.971875 
    27.97243 
   27.973819 
   27.976081 
   27.979115 
   27.982884 
   27.987329 
   27.992353 
   27.997903 
   28.003824 
   28.009947 
   28.016422 
   28.023057 
   28.029645 
    28.03598 
   28.041852 
   28.047238 
   28.051921 
   28.055692 
   28.058405 
   28.060021 
   28.060409 
   28.059543 
   28.057481 
   28.054347 
   28.050231 
   28.045355 
   28.039878 
   28.034121 
   28.028293 
   28.022306 
   28.016453 
   28.010781 
   28.005392 
   28.000168 
   27.995259 
   27.990794 
   27.986901 
   27.983578 
   27.980928 
   27.978943 
   27.977612 
   27.976995 
   27.977195 
   27.978035 
   27.979616 
   27.981966 
   27.984916 
    27.98854 
   27.992559 
   27.996964 
   28.001779 
   28.006851 
   28.012132 
   28.017481 
   28.022654 
   28.027679 
    28.03235 
    28.03658 
   28.040258 
   28.043212 
   28.045363 
   28.046633 
    28.04704 
   28.046472 
   28.045082 
    28.04295 
     28.0402 
   28.037078 
   28.033524 
   28.029646 
   28.025593 
   28.021534 
   28.017653 
   28.013989 
   28.010521 
   28.007316 
   28.004495 
   28.001925 
   27.999649 
   27.997759 
    27.99621 
   27.995017 
   27.994232 
   27.993884 
   27.994045 
   27.994644 
   27.995795 
   27.997341 
   27.999249 
   28.001426 
    28.00386 
   28.006294 
     28.0089 
    28.01153 
   28.014217 
   28.016794 
     28.0193 
   28.021607 
   28.023737 
    28.02557 
   28.027043 
   28.028006 
   28.028342 
   28.028203 
    28.02752 
   28.026436 
   28.025009 
    28.02319 
   28.021145 
   28.018973 
   28.016567 
   28.014119 
   28.011702 
    28.00939 
    28.00744 
   28.005822 
   28.004519 
    28.00361 
   28.003068 
   28.002786 
   28.002705 
   28.002564 
   28.002513 
   28.002685 
   28.002876 
   28.003037 
   28.003254 
   28.003505 
    28.00382 
   28.004274 
   28.004965 
   28.005654 
   28.006541 
     28.0076 
   28.008832 
   28.010081 
    28.01144 
   28.012893 
    28.01436 
   28.015895 
   28.017349 
   28.018782 
   28.020136 
    28.02145 
   28.022655 
   28.023743 
   28.024721 
   28.025566 
   28.026195 
   28.026657 
   28.026849 
   28.026898 
   28.026739 
   28.026302 
   28.025691 
   28.024924 
   28.024059 
    28.02328 
   28.022654 
   28.022212 
   28.021943 
   28.021787 
   28.021798 
   28.021927 
   28.022151 
   28.022308 
   28.022452 
   28.022402 
    28.02215 
   28.021835 
   28.021423 
    28.02092 
   28.020353 
    28.01992 
   28.019556 
   28.019269 
   28.019133 
   28.019036 
   28.019006 
   28.019044 
    28.01917 
   28.019365 
   28.019552 
   28.019795 
   28.020021 
   28.020419 
    28.02089 
   28.021435 
   28.021938 
    28.02246 
   28.023139 
   28.023886 
   28.024693 
   28.025491 
   28.026264 
   28.026931 
   28.027403 
   28.027907 
   28.028155 
   28.028158 
   28.027881 
   28.027317 
     28.0266 
   28.025813 
   28.025084 
   28.024405 
   28.023772 
   28.023146 
   28.022646 
   28.022249 
   28.021778 
[...]
   28.034176 
   28.034385 
   28.034652 
      28.035 
   28.035247 
   28.035501 
   28.035735 
   28.035951 
   28.036359 
   28.036995 
   28.037709 
   28.038492 
   28.039306 
   28.040259 
   28.041152 
   28.042017 
   28.042901 
   28.043704 
   28.044229 
   28.044543 
   28.044679 
   28.044632 
   28.044436 
   28.043975 
   28.043305 
   28.042543 
   28.041776 
   28.040905 
   28.040016 
   28.039163 
   28.038315 
   28.037558 
   28.036713 
   28.036024 
   28.035477 
   28.035138 
   28.034899 
    28.03479 
   28.034811 
   28.034784 
   28.034744 
   28.034741 
   28.034859 
   28.034954 
   28.034949 
    28.03506 
   28.035309 
   28.035621 
   28.036045 
   28.036473 
    28.03698 
   28.037491 
   28.038153 
   28.038929 
   28.039793 
    28.04055 
   28.041265 
   28.041915 
   28.042439 
   28.042872 
   28.043145 
   28.043209 
   28.043035 
   28.042726 
    28.04226 
   28.041628 
   28.040843 
   28.039932 
   28.038977 
   28.038113 
   28.037325 
   28.036493 
   28.035565 
   28.034575 
   28.033598 
    28.03262 
   28.031717 
    28.03084 
   28.030019 
   28.029402 
   28.028919 
   28.028668 
   28.028575 
   28.028511 
   28.028677 
   28.029046 
   28.029671 
    28.03048 
   28.031406 
   28.032508 
   28.033835 
   28.035296 
   28.036916 
   28.038462 
   28.039944 
    28.04144 
   28.042779 
   28.043937 
   28.044781 
   28.045399 
   28.045767 
   28.045801 
   28.045621 
   28.045144 
   28.044504 
   28.043755 
   28.042894 
   28.041989 
   28.041023 
   28.039998 
   28.039063 
   28.038175 
    28.03726 
   28.036342 
   28.035492 
   28.034702 
   28.033932 
   28.033063 
   28.032227 
   28.031296 
   28.030489 
   28.029697 
   28.028745 
   28.027792 
   28.027037 
   28.026449 
   28.026019 
   28.025651 
   28.025502 
   28.025442 
   28.025631 
   28.025885 
   28.026327 
   28.026911 
   28.027596 
   28.028382 
   28.029059 
   28.029669 
   28.030175 
   28.030555 
   28.030793 
   28.030925 
   28.030917 
   28.030887 
   28.030891 
   28.031014 
    28.03128 
   28.031606 
   28.032102 
   28.032644 
   28.033233 
   28.033922 
   28.034577 
   28.035205 
   28.035754 
   28.036279 
   28.036724 
   28.037098 
   28.037347 
   28.037328 
    28.03711 
   28.036699 
   28.036134 
    28.03542 
   28.034782 
   28.034182 
   28.033597 
   28.033012 
    28.03255 
   28.032138 
   28.031801 
   28.031455 
   28.031293 
   28.031162 
   28.031033 
   28.030862 
   28.030664 
   28.030583 
   28.030494 
   28.030383 
   28.030377 
   28.030381 
   28.030343 
   28.030352 
   28.030541 
   28.030854 
   28.031244 
   28.031763 
    28.03242 
    28.03321 
   28.033937 
   28.034652 
     28.0354 
   28.036217 
   28.036964 
   28.037688 
   28.038161 
   28.038434 
   28.038656 
   28.038703 
   28.038497 
   28.038157 
   28.037701 
   28.037335 
   28.036965 
   28.036707 
   28.036498 
   28.036386 
   28.036363 
   28.036471 
   28.036718 
   28.037052 
   28.037426 
   28.037811 
   28.038336 
   28.038825 
    28.03928 
   28.039597 
   28.039733 
   28.039686 
   28.039394 
   28.039015 
   28.038594 
   28.038095 
   28.037518 
   28.036872 
   28.036181 
   28.035652 
    28.03524 
   28.034952 
   28.034807 
   28.034707 
   28.034697 
   28.034756 
   28.034876 
   28.034945 
   28.035035 
   28.035127 
   28.035199 
    28.03523 
   28.035083 
   28.034909 
   28.034835 
   28.034754 
   28.034695 
   28.034732 
   28.034944 
   28.035195 
   28.035567 
   28.035916 
   28.036307 
   28.036701 
   28.037143 
   28.037725 
    28.03832 
   28.039018 
   28.039648 
   28.040259 
   28.040741 
   28.041123 
   28.041402 
    28.04158 
   28.041584 
   28.041428 
   28.041169 
   28.040851 
   28.040564 
   28.040378 
   28.040105 
   28.039792 
   28.039541 
   28.039376 
   28.039168 
   28.038878 
   28.038545 
   28.038133 
   28.037501 
   28.036746 
   28.035975 
   28.035066 
   28.034129 
   28.033198 
   28.032225 
   28.031143 
   28.030025 
   28.028864 
   28.027776 
   28.026858 
   28.026024 
   28.025347 
   28.024901 
   28.024727 
   28.024596 
   28.024597 
   28.024602 
   28.024741 
   28.025069 
   28.025593 
   28.026223 
   28.026986 
   28.027743 
   28.028442 
    28.02922 
   28.029957 
   28.030486 
   28.031001 
   28.031317 
   28.031557 
   28.031865 
   28.032253 
   28.032676 
    28.03314 
   28.033655 
   28.034021 
    28.03428 
   28.034405 
   28.034338 
   28.034059 
   28.033462 
   28.032564 
    28.03148 
   28.030231 
   28.028857 
   28.027422 
   28.026113 
   28.024887 
   28.023717 
   28.022681 
   28.021922 
   28.021423 
   28.021083 
   28.021033 
   28.021187 
   28.021734 
   28.022514 
   28.023452 
   28.024439 
   28.025626 
   28.026784 
   28.028012 
   28.029271 
   28.030584 
   28.031713 
   28.032831 
   28.033751 
   28.034628 
   28.035467 
   28.036343 
    28.03713 
   28.037877 
   28.038591 
   28.039251 
   28.039825 
   28.040231 
   28.040655 
   28.041092 
   28.041399 
    28.04137 
   28.040956 
   28.040265 
   28.039358 
    28.03822 
   28.036941 
   28.035507 
   28.033992 
    28.03239 
   28.030869 
   28.029492 
   28.028209 
    28.02701 
   28.025997 
   28.025358 
   28.024922 
   28.024765 
   28.024829 
   28.025213 
   28.025823 
   28.026775 
   28.027985 
   28.029246 
   28.030561 
   28.031995 
   28.033482 
   28.035061 
   28.036552 
   28.038064 
   28.039588 
   28.040921 
   28.042272 
    28.04351 
   28.044674 
   28.045513 
   28.045922 
   28.046139 
   28.046109 
   28.045795 
   28.045192 
   28.044398 
    28.04343 
   28.042299 
   28.041073 
   28.039774 
   28.038393 
   28.037014 
   28.035522 
   28.033981 
   28.032462 
   28.030964 
   28.029587 
   28.028306 
   28.027234 
   28.026414 
   28.025885 
   28.025615 
   28.025536 
   28.025826 
   28.026448 
   28.027285 
    28.02818 
   28.029344 
   28.030674 
   28.032051 
   28.033407 
   28.034628 
   28.035783 
   28.036721 
   28.037453 
   28.037924 
   28.038093 
   28.037936 
    28.03748 
   28.036751 
   28.035881 
   28.034887 
   28.033833 
   28.032781 
   28.031616 
    28.03053 
     28.0295 
   28.028547 
   28.027758 
   28.027226 
   28.026844 
   28.026574 
   28.026226 
   28.026019 
   28.025711 
   28.025425 
   28.025191 
   28.025028 
   28.024955 
   28.025095 
   28.025341 
   28.025881 
   28.026627 
   28.027609 
   28.028818 
   28.030158 
   28.031688 
   28.033402 
    28.03535 
   28.037184 
    28.03898 
   28.040672 
   28.042087 
   28.043236 
   28.044163 
   28.044864 
    28.04532 
   28.045466 
   28.045334 
     28.0449 
   28.044228 
   28.043347 
   28.042299 
   28.041054 
   28.039603 
   28.038054 
   28.036506 
   28.034888 
   28.033322 
    28.03186 
   28.030465 
   28.029251 
   28.028115 
   28.027097 
   28.026245 
   28.025439 
   28.024692 
   28.024141 
   28.023798 
    28.02373 
   28.023919 
   28.024573 
   28.025443 
   28.026742 
   28.028359 
   28.030332 
   28.032545 
   28.034896 
   28.037239 
   28.039544 
   28.041769 
   28.043691 
   28.045449 
   28.046745 
    28.04767 
   28.048194 
   28.048222 
   28.047824 
   28.046871 
   28.045515 
   28.043762 
   28.041768 
   28.039622 
   28.037383 
   28.035224 
   28.033067 
   28.030987 
   28.029035 
   28.027318 
   28.025851 
   28.024657 
   28.023677 
   28.023081 
   28.022727 
   28.022546 
   28.022633 
   28.023026 
   28.023538 
   28.024145 
   28.024835 
   28.025592 
   28.026505 
   28.027578 
   28.028802 
   28.030169 
   28.031586 
   28.033126 
   28.034695 
   28.036241 
   28.037677 
   28.038975 
   28.040125 
   28.041062 
   28.041693 
   28.041992 
    28.04198 
   28.041563 
   28.040879 
   28.039894 
   28.038714 
   28.037309 
   28.035712 
   28.034051 
   28.032352 
   28.030597 
   28.029043 
   28.027667 
   28.026483 
   28.025455 
   28.024551 
   28.023786 
   28.023311 
   28.023143 
    28.02334 
   28.023881 
   28.024714 
   28.025772 
   28.027091 
   28.028478 
   28.029999 
    28.03157 
   28.033258 
   28.034976 
   28.036788 
   28.038606 
   28.040394 
   28.042189 
   28.043937 
   28.045657 
   28.047301 
   28.048705 
   28.049799 
   28.050394 
   28.050653 
   28.050462 
   28.049831 
   28.048722 
   28.047236 
   28.045339 
   28.043213 
   28.040809 
   28.038365 
   28.035833 
    28.03337 
   28.031017 
   28.028838 
   28.026776 
   28.024991 
   28.023571 
   28.022611 
    28.02199 
   28.021716 
   28.021944 
   28.022597 
   28.023596 
   28.024974 
   28.026783 
   28.028886 
   28.031172 
   28.033639 
   28.036284 
   28.039108 
   28.042004 
   28.044956 
   28.047877 
   28.050637 
   28.053104 
   28.055297 
   28.057094 
   28.058521 
   28.059418 
   28.059809 
   28.059733 
   28.059164 
   28.058173 
   28.056718 
   28.054656 
   28.052145 
   28.049306 
     28.0461 
   28.042587 
   28.039046 
   28.035455 
   28.032058 
   28.028781 
   28.025716 
   28.022949 
   28.020498 
   28.018509 
   28.016949 
   28.015977 
   28.015521 
   28.015539 
   28.016009 
   28.016933 
    28.01836 
   28.020128 
   28.022303 
   28.024846 
     28.0277 
   28.030739 
   28.033865 
   28.037015 
   28.040065 
   28.042888 
   28.045344 
   28.047489 
   28.049245 
   28.050437 
   28.051231 
   28.051447 
   28.051026 
   28.050054 
     28.0486 
   28.046862 
   28.044699 
   28.042184 
   28.039515 
   28.036636 
   28.033649 
   28.030756 
   28.027884 
   28.025043 
   28.022371 
   28.019925 
    28.01776 
   28.015851 
   28.014464 
   28.013428 
   28.012808 
   28.012533 
    28.01275 
   28.013501 
   28.014559 
   28.015946 
   28.017805 
   28.020041 
   28.022493 
   28.025098 
   28.027896 
   28.030717 
    28.03368 
    28.03665 
   28.039585 
   28.042314 
    28.04467 
   28.046554 
   28.047794 
   28.048449 
   28.048561 
    28.04807 
   28.047116 
   28.045732 
   28.043916 
   28.041772 
   28.039331 
   28.036677 
   28.033979 
   28.031214 
   28.028452 
   28.025743 
     28.0231 
    28.02068 
   28.018515 
   28.016591 
   28.014928 
   28.013719 
     28.0128 
   28.012171 
   28.012036 
   28.012327 
   28.013088 
   28.014289 
   28.016051 
   28.018132 
   28.020635 
   28.023411 
   28.026464 
   28.029778 
   28.033135 
   28.036512 
   28.039968 
   28.043268 
   28.046211 
   28.048738 
   28.050896 
   28.052407 
   28.053239 
   28.053533 
   28.053229 
   28.052393 
   28.051043 
   28.049219 
   28.047098 
   28.044763 
   28.042293 
   28.039714 
   28.037172 
   28.034754 
   28.032285 
   28.029908 
   28.027816 
   28.025975 
   28.024529 
   28.023276 
   28.022424 
   28.021973 
   28.021845 
   28.022118 
   28.022686 
   28.023536 
   28.024723 
    28.02625 
   28.028109 
   28.030242 
   28.032608 
   28.035015 
   28.037573 
   28.040143 
   28.042516 
   28.044771 
   28.046796 
   28.048369 
   28.049461 
   28.049948 
   28.049853 
   28.049114 
    28.04777 
   28.045805 
   28.043294 
   28.040411 
   28.037306 
   28.034048 
   28.030696 
   28.027394 
   28.024333 
   28.021552 
   28.019014 
   28.016784 
   28.014976 
   28.013717 
   28.012822 
   28.012238 
   28.012068 
   28.012352 
   28.013159 
   28.014393 
    28.01598 
   28.017806 
   28.019994 
   28.022493 
   28.025448 
   28.028709 
   28.032143 
   28.035719 
   28.039324 
   28.043019 
   28.046706 
   28.050106 
   28.053198 
   28.055837 
   28.057891 
   28.059386 
   28.060247 
   28.060417 
   28.060004 
   28.058833 
    28.05704 
   28.054705 
   28.051882 
   28.048542 
     28.0449 
    28.04119 
   28.037427 
   28.033748 
   28.030258 
   28.027011 
   28.023971 
   28.021363 
   28.019224 
    28.01745 
   28.016112 
   28.015408 
   28.015224 
   28.015604 
   28.016363 
   28.017427 
   28.018983 
   28.020928 
   28.023248 
   28.025858 
   28.028591 
    28.03146 
   28.034455 
   28.037661 
   28.040949 
    28.04421 
   28.047373 
   28.050392 
   28.053038 
   28.055182 
   28.056752 
   28.057634 
   28.057795 
   28.057322 
    28.05613 
   28.054217 
    28.05174 
   28.048746 
   28.045237 
   28.041454 
   28.037549 
   28.033569 
   28.029614 
    28.02578 
   28.022289 
    28.01904 
   28.016259 
   28.013838 
    28.01182 
   28.010291 
   28.009379 
   28.009093 
   28.009384 
    28.01023 
   28.011705 
   28.013661 
    28.01615 
   28.019016 
   28.022256 
   28.025752 
   28.029549 
   28.033465 
   28.037413 
   28.041306 
   28.045173 
   28.048972 
   28.052484 
   28.055653 
   28.058276 
   28.060239 
   28.061449 
   28.062013 
   28.061726 
   28.060787 
   28.059121 
    28.05672 
    28.05372 
   28.050361 
   28.046716 
   28.042878 
   28.038978 
   28.035075 
   28.031275 
   28.027689 
   28.024349 
   28.021395 
   28.018765 
   28.016643 
   28.014947 
   28.013661 
   28.012862 
   28.012534 
   28.012699 
   28.013412 
    28.01471 
    28.01653 
   28.018676 
   28.021431 
   28.024542 
   28.028049 
   28.031857 
   28.035889 
   28.040042 
   28.044231 
   28.048453 
   28.052451 
   28.056103 
   28.059216 
   28.061731 
   28.063586 
   28.064524 
   28.064519 
   28.063529 
   28.061626 
   28.058868 
   28.055374 
   28.051248 
   28.046661 
   28.041811 
   28.036819 
   28.031847 
   28.027023 
   28.022521 
   28.018351 
   28.014609 
   28.011408 
   28.008674 
   28.006419 
   28.004727 
    28.00372 
   28.003378 
   28.003647 
   28.004447 
   28.005862 
    28.00775 
     28.0101 
   28.012861 
   28.015983 
   28.019578 
   28.023461 
   28.027572 
   28.031748 
   28.035958 
   28.040225 
   28.044455 
   28.048485 
   28.052264 
   28.055683 
   28.058569 
   28.060721 
   28.062034 
   28.062516 
   28.062079 
   28.060743 
   28.058633 
    28.05581 
   28.052402 
   28.048562 
   28.044569 
   28.040474 
   28.036422 
   28.032532 
   28.028896 
   28.025686 
    28.02299 
   28.020798 
   28.018942 
   28.017589 
    28.01674 
   28.016377 
   28.016519 
   28.017116 
   28.018037 
    28.01928 
   28.020901 
   28.022831 
   28.024995 
   28.027265 
   28.029641 
   28.032179 
   28.034711 
   28.037117 
    28.03944 
   28.041537 
   28.043316 
   28.044768 
   28.046051 
   28.046951 
   28.047681 
   28.048024 
    28.04813 
   28.047999 
   28.047535 
   28.046646 
   28.045308 
   28.043679 
   28.041742 
   28.039419 
   28.036786 
   28.034026 
   28.031226 
   28.028398 
   28.025723 
   28.023268 
   28.021176 
   28.019486 
   28.018206 
   28.017327 
   28.016824 
   28.016533 
   28.016569 
   28.016978 
   28.017644 
   28.018507 
    28.01966 
    28.02099 
   28.022523 
   28.024115 
   28.025721 
   28.027361 
    28.02909 
   28.030884 
   28.032652 
   28.034298 
   28.035914 
   28.037529 
   28.039014 
   28.040381 
   28.041573 
   28.042542 
    28.04314 
   28.043402 
   28.043332 
   28.042986 
   28.042336 
   28.041374 
   28.040111 
   28.038554 
   28.036943 
   28.035238 
     28.0335 
   28.031946 
   28.030537 
   28.029221 
   28.028111 
   28.027297 
   28.026714 
   28.026454 
   28.026464 
   28.026736 
   28.027142 
   28.027675 
   28.028224 
    28.02876 
   28.029324 
   28.029998 
   28.030621 
    28.03119 
   28.031719 
   28.032229 
   28.032686 
    28.03319 
    28.03371 
   28.034194 
   28.034715 
   28.035314 
   28.035897 
   28.036406 
   28.036907 
   28.037377 
    28.03781 
   28.038055 
   28.038142 
   28.038186 
    28.03802 
   28.037626 
   28.036972 
   28.036212 
   28.035389 
   28.034602 
   28.033843 
   28.033236 
    28.03273 
   28.032396 
   28.032142 
   28.032041 
   28.032133 
   28.032347 
   28.032679 
    28.03303 
    28.03336 
    28.03363 
   28.033872 
   28.034065 
   28.034254 
   28.034429 
   28.034453 
   28.034411 
   28.034293 
   28.034012 
   28.033698 
   28.033306 
   28.032856 
   28.032286 
   28.031786 
   28.031369 
   28.030892 
   28.030552 
   28.030227 
    28.02989 
   28.029499 
   28.029103 
   28.028727 
   28.028455 
   28.028134 
   28.027737 
   28.027335 
   28.027098 
   28.026881 
   28.026724 
   28.026649 
   28.026756 
   28.027002 
   28.027266 
   28.027692 
   28.028279 
   28.028994 
   28.029808 
   28.030726 
    28.03174 
    28.03287 
   28.034004 
   28.035212 
   28.036455 
   28.037578 
   28.038486 
   28.039291 
   28.039799 
   28.040121 
   28.040366 
   28.040496 
   28.040532 
   28.040456 
   28.040284 
   28.040096 
   28.039739 
   28.039259 
   28.038615 
   28.037874 
   28.037044 
    28.03623 
   28.035291 
   28.034394 
   28.033438 
   28.032426 
    28.03142 
   28.030464 
   28.029485 
   28.028424 
    28.02741 
   28.026429 
   28.025589 
   28.024937 
   28.024609 
   28.024496 
   28.024683 
   28.025184 
   28.025887 
   28.026907 
   28.028164 
   28.029594 
   28.031231 
   28.033048 
   28.034818 
   28.036555 
   28.038243 
   28.039762 
   28.041213 
   28.042543 
   28.043651 
   28.044574 
   28.045312 
   28.045829 
   28.046112 
   28.046156 
   28.045996 
   28.045523 
   28.044864 
   28.043939 
     28.0427 
   28.041165 
   28.039223 
   28.037102 
   28.034854 
   28.032524 
   28.030173 
   28.027805 
   28.025489 
   28.023203 
   28.021225 
   28.019466 
   28.017985 
   28.016764 
    28.01589 
   28.015357 
   28.015233 
   28.015558 
     28.0163 
    28.01736 
   28.018733 
   28.020278 
   28.021956 
   28.023819 
   28.025743 
   28.027897 
   28.030109 
   28.032365 
   28.034691 
   28.036921 
   28.039094 
   28.041039 
   28.042854 
   28.044521 
   28.045857 
   28.046897 
   28.047667 
   28.048025 
   28.048074 
   28.047818 
   28.047181 
   28.046258 
   28.044892 
   28.043239 
   28.041336 
   28.039346 
   28.037344 
   28.035324 
   28.033344 
   28.031391 
   28.029424 
    28.02759 
   28.025806 
   28.024107 
    28.02268 
   28.021626 
   28.020929 
   28.020476 
   28.020328 
   28.020397 
   28.020794 
   28.021281 
   28.021995 
    28.02293 
   28.023974 
   28.025151 
   28.026503 
   28.027886 
   28.029283 
   28.030681 
   28.032043 
   28.033439 
    28.03483 
   28.036109 
   28.037351 
   28.038344 
   28.039258 
   28.039962 
   28.040337 
   28.040521 
   28.040478 
   28.040115 
   28.039599 
   28.038745 
   28.037717 
   28.036558 
   28.035263 
   28.033852 
   28.032347 
   28.030824 
   28.029275 
   28.027654 
   28.026101 
   28.024624 
   28.023338 
   28.022228 
   28.021373 
   28.020716 
   28.020379 
   28.020273 
   28.020439 
   28.020893 
   28.021526 
   28.022311 
   28.023301 
   28.024448 
   28.025789 
   28.027277 
   28.028865 
   28.030578 
   28.032326 
   28.034188 
   28.035982 
   28.037742 
   28.039422 
   28.040976 
    28.04233 
   28.043274 
   28.043921 
    28.04411 
   28.043929 
    28.04345 
   28.042667 
   28.041595 
   28.040371 
    28.03887 
   28.037257 
   28.035526 
   28.033736 
   28.031959 
   28.030234 
   28.028517 
     28.0269 
    28.02534 
   28.023981 
   28.022709 
   28.021431 
   28.020234 
   28.019193 
   28.018413 
    28.01761 
   28.016942 
   28.016481 
   28.016171 
   28.016203 
   28.016522 
   28.017229 
   28.018135 
   28.019325 
   28.020749 
   28.022283 
   28.024069 
   28.026041 
   28.028136 
   28.030373 
   28.032586 
   28.034677 
   28.036772 
   28.038631 
   28.040112 
   28.041273 
   28.042079 
   28.042527 
   28.042656 
   28.042343 
   28.041819 
   28.041124 
   28.040279 
   28.039231 
   28.037936 
   28.036427 
   28.034981 
   28.033381 
   28.031631 
   28.029918 
   28.028297 
   28.026694 
   28.025074 
   28.023556 
   28.022264 
   28.021207 
   28.020388 
   28.019764 
   28.019452 
   28.019397 
    28.01958 
   28.020057 
   28.020896 
   28.022054 
   28.023387 
   28.025025 
   28.026944 
   28.029097 
   28.031523 
   28.033992 
   28.036488 
   28.039009 
   28.041395 
   28.043636 
   28.045605 
   28.047199 
   28.048464 
   28.049342 
   28.049719 
   28.049635 
   28.049085 
   28.048242 
   28.046953 
   28.045549 
   28.043992 
   28.042234 
   28.040379 
    28.03823 
   28.035848 
   28.033388 
   28.030856 
