LAMMPS (17 Nov 2016)
units lj
dimension 3
atom_style bond
bond_style harmonic
pair_style lj/cut 3
read_data data.polymer
  orthogonal box = (0 0 0) to (60 30 30)
  1 by 1 by 1 MPI processor grid
  reading atoms ...
  8887 atoms
  scanning bonds ...
  1 = max bonds/atom
  reading bonds ...
  9 bonds
  2 = max # of 1-2 neighbors
  2 = max # of 1-3 neighbors
  4 = max # of 1-4 neighbors
  6 = max # of special neighbors
region void cylinder x 15 15 2 29 31
pair_coeff 1 2 2.5 3
pair_coeff 1 3 2.5 1.12
pair_coeff 2 3 2.5 1.12
velocity all create 1 97287
group polymer type 1 2
10 atoms in group polymer
group first type 1
1 atoms in group first
region box block 0 60 0 30 0 30
region spherein sphere 29 15 15 2
region boxin block 27 29 13 17 13 17
region hemiin intersect 2 boxin spherein
info system
info system
print "$(x[1])"
22
print "$(y[1])"
15
print "$(z[1])"
15
info system
info system
print "$(x[1])"
22
print "$(y[1])"
15
print "$(z[1])"
15
info system
info system
print "$(x[1])"
22
print "$(y[1])"
15
print "$(z[1])"
15
fix 1 polymer nve
fix 2 polymer langevin 1 1 1.5 75930
fix 3 polymer spring tether 10 4.5 NULL NULL 0
timestep 0.01
compute com polymer com
variable ftotal equal fcm(polymer,x)
variable c equal c_com[1]
thermo_style custom v_ftotal v_c
thermo 1
run 500000
Neighbor list info ...
  1 neighbor list requests
  update every 1 steps, delay 10 steps, check yes
  max neighbors/atom: 2000, page size: 100000
  master list distance cutoff = 3.3
  ghost atom cutoff = 3.3
  binsize = 1.65 -> bins = 37 19 19
Memory usage per processor = 4.0961 Mbytes
v_ftotal v_c 
  -91.401541         17.5 
  -90.360652    17.499956 
  -137.81726    17.499008 
  -140.52806    17.496682 
  -49.450009    17.492951 
  -149.58986    17.488725 
  -154.15125    17.483004 
  -135.20033    17.475741 
  -228.56086    17.467125 
  -96.238742    17.456225 
   -119.2323    17.444362 
  -179.53706    17.431306 
  -32.787875    17.416455 
  -96.695418    17.401277 
   -230.3302    17.385131 
  -110.54356    17.366682 
  -99.706453    17.347128 
  -115.64207    17.326576 
  -111.33878    17.304868 
  -88.478494    17.282047 
  -98.732249    17.258341 
  -88.818624    17.233648 
   -98.58357    17.208066 
  -119.11999    17.181499 
  -100.52788     17.15374 
  -126.10334    17.124976 
  -108.02744    17.094951 
  -199.21816    17.063846 
  -92.261185    17.030749 
  -181.21121    16.996729 
  -141.61265    16.960897 
  -83.849697    16.923649 
  -85.756171    16.885562 
  -53.820528    16.846618 
  -21.607923    16.807135 
  -72.568867    16.767437 
  -106.04722    16.727013 
  -30.492015    16.685528 
  -137.47869    16.643738 
  -148.59628    16.600574 
  -96.429673    16.555923 
  -85.438067    16.510309 
  -128.60282     16.46384 
  -41.460937    16.416085 
  -72.911236    16.367915 
  -44.016936    16.319016 
  -99.022203    16.269677 
   -131.3458    16.219348 
  -102.33835    16.167705 
  -54.353863    16.115039 
  -78.674879     16.06183 
  -77.684269    16.007833 
  -75.029206     15.95306 
  -141.70442    15.897537 
  -85.584389    15.840596 
  -99.395184      15.7828 
  -81.294979     15.72401 
  -76.294663    15.664406 
   35.626787     15.60404 
  -154.08011     15.54403 
  -115.56158     15.48248 
   -28.95673    15.419773 
   -49.20494    15.356777 
  -106.02149    15.293289 
  -25.937492    15.228741 
  -36.366367    15.163934 
   -18.68536    15.098762 
  -55.036203    15.033404 
  -53.546064    14.967496 
  -78.396255    14.901052 
  -24.813508    14.833824 
   35.627724    14.766348 
  -108.35153    14.699228 
  -36.774224    14.631025 
  -77.958998    14.562454 
  -35.514632    14.493104 
  -93.222747    14.423398 
  -37.161743     14.35276 
  -34.794433    14.281751 
  -88.634619    14.210393 
  -41.166501    14.138149 
  -74.128162    14.065494 
  -40.484435    13.992097 
   -24.68327    13.918295 
  -52.063996    13.844247 
  -56.451978    13.769678 
  -63.809507    13.694544 
    -54.7677    13.618772 
   16.609957    13.542453 
  -30.677764      13.4663 
  -100.32631     13.38984 
   -45.49711    13.312376 
  -60.274165    13.234455 
  -20.023643    14.485446 
   13.275547    14.430636 
  -58.997132    14.375959 
  -32.055651    14.320692 
   -71.78108    14.265105 
   -58.20323      14.2088 
  -34.071924    14.151912 
  -22.649598    14.094684 
   3.4616407     14.03723 
   21.640251     13.97981 
   6.0791098    13.922607 
  -11.171322    13.865464 
   20.176676     13.80821 
  -62.475743    13.751157 
  -28.619536     13.69348 
  -74.071039    13.635516 
  -76.034518    13.576812 
   10.760771    13.517347 
  -27.757672     13.45799 
   30.725465    13.398355 
  -116.50058    13.339028 
  -34.030287    13.278536 
   1.7106848    13.217703 
   3.4817568    13.156888 
  -55.657208    13.096107 
  -78.947869     13.03477 
  -6.5436965    12.972643 
    45.07783    12.910451 
   -1.127043    12.848709 
  -13.731592    12.786956 
  -6.5411762    12.725066 
   69.525574    12.663111 
   106.89511    12.601851 
  -4.2551366     12.54166 
  -26.206891    12.481426 
   16.363693     12.42093 
  -29.759952    12.360598 
  0.49010339    12.299968 
  -67.653603    12.239343 
  -33.978168    12.178042 
  -17.940082      12.1164 
  -25.820919     12.05458 
   14.797053    11.992501 
   -30.23097     11.93057 
   7.3420474    11.868337 
  -44.186065    11.806177 
  -80.254673    11.743575 
  -1.6460181    11.680171 
  -9.8173548    11.616751 
   91.557604    11.553232 
   72.822904    11.490629 
   21.311225    11.428754 
   83.376324    11.367092 
  -38.774513    11.306264 
   10.552673    11.245048 
  -126.15094    11.183937 
   -29.26092    11.121566 
   62.944467    11.058901 
   -8.323612    10.996866 
   47.066225    10.934748 
   60.664309      10.8731 
   66.478979    10.812059 
  -9.5673152    10.751683 
   68.197218    10.691211 
   19.995489    10.631422 
  -20.796075    10.571832 
   53.855646    10.512034 
   23.191789    10.452774 
  -9.5797127    10.393747 
  -8.9374001    10.334624 
   47.224181    10.275411 
   21.870518    10.216671 
  -8.8600057    10.158149 
   55.300678    10.099539 
  -13.812153    10.041482 
  -4.1698843    9.9832867 
  -104.25113    9.9250497 
   63.367837    9.8657702 
   -27.80734    9.8071243 
   40.877233    9.7482004 
   36.302522    9.6896852 
    76.60886    9.6315331 
   63.849012    9.5741471 
  -11.193237    9.5173995 
   28.956689      9.46054 
   4.8407014    9.4039701 
   43.418289    9.3474486 
   24.585009    9.2913613 
  -4.7481405    9.2355198 
  -10.955514    9.1796309 
  -33.868529    9.1236323 
   5.4299493    9.0672951 
   103.25275    9.0110123 
   81.887651    8.9557619 
   -10.48954    8.9013304 
   39.404398     8.846794 
  -64.930763    8.7926517 
   15.583576      8.73786 
   33.446528    8.6832242 
   61.898486    8.6289228 
   53.909129    8.5752405 
  -10.467509    8.5220972 
   26.863613    8.4688492 
   54.256654    8.4158699 
   44.115034    8.3634332 
   31.718159    8.3114376 
   39.962317    8.2597592 
   14.848041    8.2084804 
    30.86038    8.1573501 
   37.742912    8.1065283 
   120.99025    8.0560841 
   91.503832    8.0068497 
    71.10614    7.9585304 
   44.166265    7.9109221 
   43.693284    7.8637555 
   110.81255    7.8170258 
  -11.565297    7.7714042 
   92.679738     7.725667 
   52.432961    7.6808566 
   66.121931    7.6365705 
   38.122205    7.5929457 
  -19.316208     7.549702 
   68.088813    7.5062652 
   13.922471    7.4635093 
   3.0818552    7.4208926 
   16.512557    7.3783067 
  -14.377645     7.335886 
   42.498037    7.2933215 
  -2.4911125    7.2511819 
   27.064812    7.2090175 
   26.708888    7.1671237 
   7.9115538    7.1254969 
  -21.013732    7.0839493 
   98.670255    7.0421916 
  -22.784339    7.0014206 
   40.718105    6.9604217 
   34.341948      6.91983 
  -23.811523    6.8795817 
   73.324967    6.8390953 
   49.538287    6.7993422 
  -1.1199033    6.7600844 
   34.006169    6.7208155 
   81.197244    6.6818866 
  -15.193638    6.6437696 
   20.349062    6.6055008 
   18.415763    6.5674354 
   80.581233    6.5295542 
   31.965003    6.4924788 
   11.868911     6.455723 
  -16.099903     6.419086 
   69.737947    6.3822879 
   72.432673     3.987243 
    63.19461    3.9449242 
  -3.3987527    3.9032374 
   31.474627    3.8615166 
   48.318137    3.8201105 
   10.730031    3.7791876 
   58.927858     3.738372 
   150.64185    3.6981456 
   51.158834    3.6594257 
   70.118816    3.6212174 
   14.618928    3.5837102 
   1.7078416    3.5463493 
   75.978357    3.5090054 
   40.443253    3.4724214 
  -18.914164    3.4362417 
   31.245504    3.3998729 
  -4.3421348    3.3638166 
   58.848463    3.3277168 
  -10.008692    3.2922055 
   70.159472    3.2565942 
  -31.863271    3.2216844 
   73.801116     3.186456 
   78.647787    3.1519656 
   34.825232    3.1182617 
   16.660591     3.084906 
   102.66512     3.051717 
   120.19778    3.0195546 
   47.923154    2.9885942 
   57.460191     2.958113 
   27.218666    2.9282064 
   106.74742     2.898572 
   68.770756    2.8700051 
   79.671125    2.8421258 
    7.695087    2.8150433 
   11.985762    2.7880378 
   52.016649    2.7611521 
   29.459639    2.7347865 
   125.08492    2.7087156 
   141.07781    2.6838955 
   26.986545    2.6604862 
   46.227856    2.6373467 
   39.381172    2.6146696 
    29.15649    2.5923862 
   74.933276    2.5703944 
   24.782337     2.549152 
   102.81979    2.5281573 
   42.150396    2.5081909 
   71.940524     2.488646 
   41.755472    2.4698204 
    63.75125    2.4514125 
    131.0427     2.433642 
   48.771546     2.417182 
   27.736473    2.4012096 
   61.767274    2.3855147 
   95.852025    2.3704374 
   40.091457    2.3563186 
   47.492938    2.3426008 
   69.215765    2.3293579 
   62.170814    2.3168071 
   50.453384    2.3048781 
   85.761683    2.2934536 
   93.900113    2.2828867 
   18.207318    2.2732588 
   66.000936    2.2638129 
   74.516352    2.2550271 
  -10.699136    2.2469865 
   26.341278    2.2388388 
   58.940092    2.2309546 
   74.124698    2.2236597 
   93.172869    2.2171062 
   64.152415    2.2114843 
   92.563551     2.206504 
   42.856176    2.2024493 
   96.234161    2.1988232 
   37.774058    2.1961594 
   64.296972    2.1938733 
   41.437011    2.1922302 
     27.9369    2.1910015 
   10.198333    2.1900522 
   76.090074    2.1892048 
  -6.0840828    2.1891184 
  -15.211177    2.1889711 
   68.958798    2.1886716 
   49.480755    2.1890618 
  -26.443041    2.1899468 
   49.015894    2.1905674 
   15.980294    2.1916781 
   19.812572    2.1929486 
   41.906882    2.1944172 
   1.8012937    2.1963049 
   37.623001    2.1982107 
   60.772988    2.2004926 
   79.990415    2.2033823 
   51.301589    2.2070719 
   25.894808    2.2112745 
   14.873346     2.215736 
   62.776133    2.2203463 
   5.9853428    2.2255844 
   79.966272    2.2308823 
   34.136132    2.2369798 
   60.068725    2.2434188 
  -5.2291783    2.2504584 
  0.08993992    2.2574457 
   87.385941    2.2644339 
   47.250062     2.272296 
  -15.976744    2.2806306 
   95.047273    2.2888054 
   1.0438991    2.2979307 
   64.963794    2.3070664 
   8.1669911    2.3168517 
  -13.516621    2.3267188 
   21.494332    2.3364506 
   3.8679023    2.3463974 
   78.517225    2.3563829 
   59.536082    2.3671536 
   39.670196    2.3785196 
   79.468832    2.3902823 
   39.827483    2.4028397 
   20.427209    2.4157954 
   88.739996    2.4289554 
  -15.305404    2.4430027 
   16.459129     2.456897 
    72.50659    2.4709559 
   1.7803082    2.4857399 
    37.51642    2.5005417 
   14.411454    2.5157186 
   6.3418831    2.5310396 
   -46.07079    2.5464241 
   33.694524    2.5613478 
  -21.339831    2.5766085 
   60.018596    2.5916558 
   27.593642    2.6073033 
   11.941769    2.6232267 
  -22.933853    2.6392696 
   65.546074    2.6550831 
   55.940423     2.671552 
   93.395083    2.6885804 
   40.792179    2.7065427 
   8.1211079     2.724913 
   5.5421216    2.7433644 
   2.9127453    2.7618713 
  -42.395986    2.7804073 
   13.802867    2.7985193 
   80.043652    2.8167694 
   21.587585    2.8358199 
   104.08707    2.8550863 
   32.846242    2.8753935 
   31.470977    2.8960292 
  -6.5555841    2.9169797 
    18.05656    2.9378645 
  -58.812772      2.95893 
  -3.9014083    2.9794073 
   21.466919    2.9998456 
  -20.965548    3.0204985 
   2.9324515    3.0409418 
   2.1604184    3.0614145 
   87.545994    3.0819087 
   15.072233    3.1032784 
   24.814793    3.1247988 
 -0.11848575    3.1465674 
   7.2659487    3.1683347 
  -8.8706995    3.1901748 
   26.528133    3.2119261 
    49.91024    3.2339427 
   32.928227    3.2564584 
  -19.277495    3.2793034 
    55.49766    3.3019557 
   104.87511    3.3251629 
   23.468047    3.3494188 
   0.3730575    3.3739094 
  -13.406122    3.3984038 
   2.7842962    3.4227641 
   25.868601    3.4471522 
   35.475601    3.4717991 
   37.117384    3.4968006 
  -20.600401    3.5221734 
    40.11087    3.5473402 
  -87.271133     3.572908 
   48.665282    3.5976032 
   48.162855     3.622785 
  -50.984771    3.6484484 
    -21.0977     3.673602 
   -58.73822    3.6985446 
   5.3637088    3.7228998 
  -37.926354    3.7473087 
   17.456633    3.7713383 
   42.370869    3.7955425 
   79.255122    3.8201703 
   5.5203748    3.8455908 
  -2.7955904    3.8710664 
   4.3448976    3.8965141 
   24.474793    3.9220052 
-0.043597525    3.9477411 
   11.984507    3.9734765 
   8.3117474    3.9993318 
    31.85028    4.0252702 
   45.369862    4.0515271 
   55.577802    4.0782377 
   60.643455     4.105504 
    22.42137    4.1333769 
  -61.737883    4.1614739 
  -30.204917    4.1889535 
   9.7594105    4.2161311 
   23.527328    4.2434063 
   6.6673143    4.2709168 
  -10.185718    4.2984939 
  -16.792722    4.3259692 
  -23.226444    4.3532765 
  -13.364713    4.3803516 
  -46.632123    4.4072931 
  -25.326533    4.4337682 
    2.560658    4.4599901 
   18.950622    4.4862375 
   35.612362    4.5126745 
   43.992099    4.5394676 
   22.265049    4.5667006 
  -78.772785    4.5941563 
  -29.694303    4.6208242 
   52.674818    4.6471952 
  -30.576462    4.6740929 
  -31.201236    4.7006849 
   45.014394    4.7269649 
   16.586384     4.753695 
  -62.195464    4.7805909 
   9.0157978     4.806865 
  -23.135123    4.8332291 
  -1.0176449    4.8593619 
  -60.926917    4.8854846 
   31.716419     4.910998 
   64.523014    4.9368285 
  -77.453104    4.9633043 
   64.895597    4.9890055 
  -25.655147    5.0153557 
    10.72844    5.0414494 
   -38.48854    5.0676503 
  -39.733902    5.0934663 
   10.505917     5.118885 
  -12.224587    5.1444088 
  -70.309531    5.1698103 
    9.717561    5.1945088 
   7.8135847    5.2193044 
   38.397736    5.2441781 
   -8.081779    5.2694358 
   -27.13872    5.2946127 
   23.466525    5.3195182 
   36.913546    5.3446584 
   59.229488    5.3701677 
  -80.871568    5.3962693 
   6.1095436    5.4215622 
   37.551848    5.4469162 
  -35.653292    5.4726457 
  -40.473484    5.4980186 
  -11.860675    5.5229869 
    28.84924    5.5478365 
  -24.813409    5.5729746 
  -24.957487    5.5978646 
  -14.721227     5.622505 
    53.98264    5.6469982 
   6.0759711    5.6720312 
  -50.102386     5.697125 
   38.555744    5.7217178 
  -16.846573    5.7466961 
   47.033988    5.7715059 
   59.297831    5.7967861 
   51.393021    5.8226593 
  -3.5035766    5.8490464 
   7.9811706    5.8753985 
   6.3474209    5.9018303 
   -2.259569    5.9283257 
  -29.304727    5.9547984 
  -62.271033    5.9809781 
  -1.1630263    6.0065351 
  -53.273195    6.0320805 
  -14.311322    6.0570931 
  -23.630823    6.0819627 
  -44.889415    6.1065959 
  -32.717279    6.1307802 
  -28.962456    6.1546373 
  -48.749619    6.1782049 
  -18.157093    6.2012849 
   -55.51065    6.2241833 
  -34.277429    6.2465267 
   10.255696    6.2685273 
   4.2710365    6.2906304 
  -79.143614    6.3127762 
  -9.7283908    6.3341306 
  -24.001999    6.3553878 
   20.335439    6.3764049 
   2.9838853    6.3976253 
  -26.512607    6.4188756 
  -1.3342836    6.4398608 
  -25.291952    6.4608326 
  -57.005971    6.4815515 
  -12.404627    6.5017003 
  -40.256202    6.5217251 
  -26.764781    6.5413474 
   12.672715     6.560702 
  -8.9733033    6.5801833 
   36.768126    6.5995749 
  -22.827472    6.6193341 
  -16.305696    6.6388651 
  -82.459219    6.6582331 
   59.609582    6.6767764 
  -21.559654    6.6959158 
   6.9273379    7.2045675 
  -30.190028    7.2227966 
   23.623938    7.2407238 
  -31.391766    7.2588873 
  -52.883898    7.2767368 
  -25.453886    7.2940575 
  -34.598444    7.3111237 
  -67.082528    7.3278439 
   37.186508    7.3438932 
  -36.980793    7.3603145 
   5.7971015    7.3763659 
  -10.912845    7.3924753 
  -12.428006    7.4084755 
  -54.862573    7.4243515 
   28.888029    7.4396789 
  -8.6884941    7.4552951 
  -13.247646    7.4708245 
  -70.240697    7.4862213 
   37.607097    7.5009158 
  -97.984075    7.5159863 
   -6.985131     7.530077 
  -3.5424879    7.5440979 
   10.830792    7.5580833 
  -7.7243117     7.572177 
   10.124939    7.5861935 
   49.248301    7.6003112 
  -1.8889193    7.6149214 
  -18.510363    7.6295128 
  -83.414548     7.643919 
  -9.5720593    7.6574911 
  -38.501978    7.6709674 
  -20.584912    7.6840588 
  -8.6931752    7.6969443 
   8.0311009    7.7097428 
   16.506463    7.7226217 
   34.486455    7.7356656 
   78.958914    7.7490544 
   7.7487478    7.7632328 
  -16.286548    7.7774887 
   66.546879    7.7915817 
  -18.170166    7.8063402 
  -53.389015    7.8209169 
  -14.367177    7.8349598 
   30.437272     7.848859 
  -8.8713352    7.8630626 
  -24.171356    7.8771775 
  -42.821162    7.8910507 
   12.680434    7.9044956 
   27.798663    7.9180674 
   -70.94199    7.9319171 
  -7.3164716    7.9450574 
  -1.7646763    7.9581246 
  -51.679154    7.9711741 
  -4.0109175    7.9837068 
   29.844558    7.9961994 
  -64.787932    8.0089905 
  -63.489724    8.0211336 
  -38.023027    8.0326419 
  -28.402172    8.0437699 
  -68.355409     8.054614 
  -11.930585    8.0647744 
  -29.930731    8.0748156 
   -30.76999    8.0845575 
   -10.09238    8.0939916 
   10.831816    8.1033249 
   2.8532014    8.1127664 
  -100.34117    8.1222365 
  -10.909161    8.1307032 
   29.455698    8.1390607 
  -31.227165    8.1477129 
  -44.215927    8.1560527 
  -71.301073    8.1639504 
   9.9387976    8.1711351 
  -63.560309    8.1784192 
   -18.98139    8.1850677 
  -19.443995    8.1915264 
  -11.482702    8.1977906 
  -20.393777      8.20394 
   6.2336686    8.2098855 
   11.882076    8.2158933 
    60.39898    8.2220199 
  -28.083252    8.2287505 
  -10.564972    8.2352003 
  -94.504485    8.2415444 
  -4.9747218    8.2469435 
  -15.166428    8.2522928 
  -48.354586    8.2574905 
  -60.109023    8.2622046 
   15.785626    8.2663176 
  -66.217906    8.2705885 
  -8.5786898    8.2741972 
  -45.450374    8.2777202 
  -86.556302    8.2807886 
   17.291334    8.2829914 
   2.1437396    8.2853672 
   48.658995    8.2877644 
  -34.748016    8.2906482 
   23.942659    8.2931845 
  -48.167157    8.2959603 
  -28.651284    8.2982543 
   25.387065    8.3002619 
  -21.101846    8.3025233 
   32.280176    8.3045737 
  -18.773309     8.306947 
  -37.297242    8.3091324 
   -42.11878    8.3109449 
  -70.300667    8.3123363 
   77.477944    8.3130246 
  0.93449464    8.3144877 
  -30.745281    8.3159601 
  -20.526828    8.3171251 
  -9.9155566    8.3180848 
   -21.99066    8.3189454 
  -18.333073     8.319586 
  -32.369352    8.3200434 
  -23.974589     8.320177 
  -23.424396    8.3200709 
  -64.131665    8.3197305 
  -29.503568    8.3187488 
  -49.688299    8.3174721 
    19.99853    8.3156985 
  -1.6008532    8.3141249 
   18.426555    8.3125353 
   -99.44874      8.31113 
   5.3381389    8.3087301 
  -11.856139    8.3063837 
  -80.601477    8.3039186 
  -43.737338    8.3006476 
  -86.076048    8.2969392 
   21.615134      8.29237 
  -24.389902     8.288017 
   9.1988199    8.2834201 
    -27.6091    8.2789152 
  -48.103019    8.2741342 
  -4.0346454    8.2688721 
  -38.013359    8.2635697 
   2.3260019    8.2578872 
    40.85312    8.2522279 
  -12.026028    8.2469772 
  -41.254356    8.2416062 
   32.726823    8.2358226 
   1.5361641    8.2303664 
  -77.206923    8.2249255 
 -0.44647054    8.2187125 
   -11.01594     8.212495 
  -1.5474113    8.2061674 
  -17.011499    8.1998243 
  -36.612923    8.1933112 
  -17.244727    8.1864318 
  -33.590356    8.1793801 
   28.057029    8.1719924 
  -31.596684    8.7160796 
    8.286232    7.7084947 
   30.505729    7.7009927 
   7.8122835    7.6937958 
   62.428813     7.686677 
  -8.9828603    7.6801824 
   25.707862    7.6735981 
  -6.1206196    7.6672708 
   43.209908    7.6608823 
    -61.9875     7.654926 
   6.2592922    7.6483497 
   8.1660616     7.641836 
  -30.581679     7.635404 
    50.71838    7.6286662 
  -66.199356    7.6224356 
  -37.408604     7.615543 
   44.983983    7.6082762 
   21.399843    7.6014594 
  -30.355644    7.5948565 
   13.235164    7.5879501 
  -63.477591     7.581176 
  -27.104798    7.5737671 
  -6.8815516    7.5660872 
  -20.297337    7.5583385 
  -19.558785    7.5503868 
  -23.376447    7.5422395 
   28.429259    7.5338585 
  -34.118751    7.5257617 
  -63.449404    7.5173238 
   -26.64428    7.5082514 
  -10.299855    7.4989125 
   63.817843    7.4894706 
  -1.7281599    7.4806669 
  -50.999214    7.4718459 
  -32.723867     7.462515 
   16.876303    7.4528567 
 -0.21458505    7.4433673 
  -21.947214    7.4338757 
  -19.251954    7.4241646 
  -39.390776    7.4142611 
   11.026262    7.4039636 
   57.945686    7.3937763 
   25.102499    7.3841686 
   49.418317    7.3748118 
  -36.501159    7.3659492 
    -81.5559    7.3567217 
    22.92829    7.3466785 
 -0.73425495    7.3368647 
  -68.031944    7.3270435 
  -55.488505     7.316542 
  -8.4799146    7.3054856 
  -3.7226006    7.2943444 
   1.0170913    7.2831659 
  -27.960393    7.2719977 
  -3.1464272    7.2605498 
   15.274338    7.2490705 
   17.202941    7.2377439 
  -11.123034    7.2265894 
   16.474468    7.2153236 
     14.5158    7.2042226 
  -35.121429    7.1932667 
  -15.550697    7.1819596 
  -4.6460618     7.170497 
   12.849124    7.1589879 
  -22.470438    7.1476074 
  -11.040254    7.1360021 
   68.493163    7.1242864 
   25.188387    7.1132557 
    64.33148    7.1024768 
   39.977443    7.0923413 
   24.089708    7.0826055 
  -24.629847    7.0731106 
   29.748621    7.0633695 
 -0.43443562    7.0539258 
  -107.76859    7.0444778 
     32.5246     7.033952 
   26.793951    7.0237516 
   24.049678     7.013819 
   13.781831     7.004127 
    29.99852    6.9945728 
   13.414422    6.9853186 
  -11.412391    6.9761985 
   47.953944    6.9669643 
  -34.276069    6.9582096 
   12.646317    6.9491122 
   28.970566    6.9401412 
  -41.605529      6.93146 
   28.988931    6.9223626 
   14.861016    6.9135552 
   65.809992    6.9048964 
   55.154804    6.8968957 
   -41.33987    6.8894465 
  -47.553043    6.8815839 
    7.747981    6.8732458 
    51.01477    6.8649852 
   15.386886    6.8572347 
  -58.962533    6.8496381 
   35.974309    6.8414519 
   100.44253    6.8336254 
   61.672552    6.8268034 
    36.73241     6.820598 
  -1.6775788      6.81476 
  -12.068872    6.8089052 
  -12.140365    6.8029298 
  -11.680281    6.7968329 
  -46.408709    6.7906192 
  -10.738684    6.7839414 
  -11.012073    6.7771563 
   31.777098     6.770261 
   43.185917    6.7636835 
  -31.392563    6.7575379 
  0.20307797    6.7510783 
  -1.8476865    6.7446208 
  -9.6947694    6.7381447 
  -30.499519    6.7315718 
  -18.981009    6.7246938 
   -12.72486    6.7176261 
    30.74297     6.710431 
   35.269902    6.7035434 
   12.004973    6.6970086 
   39.142547    6.6905937 
   82.094042    6.6845703 
  -34.050255    6.6793678 
   19.127589    6.6738249 
   11.782075    6.6684732 
  -9.2184742    6.6632393 
   21.294216    6.6579132 
   -50.29085    6.6528001 
   27.267409    6.6471841 
   32.366335    6.6418407 
   17.664795     6.636821 
   39.012296     6.631978 
  -44.896861     6.627525 
   13.995186    6.6226231 
   17.848518    6.6178612 
  -75.810975    6.6132778 
   40.022176    6.6079362 
   32.625581    6.6029948 
   44.161749    6.5983798 
   94.480158    6.5942063 
   -37.82943    6.5909776 
  -38.663234    6.5873707 
   27.630086    6.5833771 
  -4.4787906    6.5796598 
  -51.244245    6.5758977 
   10.787074    6.5716232 
   21.043216    6.5674565 
  -55.252202    6.5635003 
   61.011937    6.5589916 
   81.382345    6.5550929 
   -40.90741    6.5520081 
    37.00435    6.5485143 
   44.923789    6.5453904 
    75.03829    6.5427158 
  -18.904845    6.5407916 
  -13.792365    6.5386784 
  -8.6436386    6.5364272 
  -34.866607    6.5340896 
  -62.063111    6.5314033 
  -79.440745    6.5280964 
   33.145445    6.5239951 
  -68.176432    6.5202252 
   45.329131    6.5157736 
   -5.816168    6.5117752 
    -32.2804    6.5077187 
  -14.764162    6.5033394 
  -28.022255    6.4988125 
  -63.493807    6.4940053 
   3.4907853    6.4885632 
   68.668008     6.483156 
    49.82988    6.4784355 
   47.012719    6.4742132 
   8.0221075    6.4704611 
   6.8351919    6.4667893 
   5.5002808    6.4631857 
   29.598371    6.4596372 
    13.80434    6.4563847 
  -9.6605513    6.4532702 
   11.285518    6.4500591 
   17.124495    6.4469609 
  -80.342882    6.4440339 
  -19.323355    6.4403034 
   10.876327    6.4363798 
   11.043112    6.4325649 
   54.001996    6.4288604 
   64.573376     6.425696 
  -35.174973    6.4231773 
   57.170777    6.4203068 
  -34.521789     6.418008 
  -45.837112    6.4153641 
  -54.762352    6.4122617 
   65.428688    6.4086118 
  -44.298831    6.4056161 
  -16.007684    6.4021774 
   68.298425    6.3985787 
  -47.466151    6.3956629 
  -79.730078    6.3922725 
   -43.40464    6.3880848 
  -21.285579     6.383463 
   52.882318    6.3786284 
   9.7247833    6.3743226 
   47.945393     6.370114 
   12.537597    6.3663849 
  0.56018741    6.3627812 
  -9.7534803    6.3591831 
   40.247126    6.3554874 
  -10.088626    6.3521942 
  -26.441812    6.3488002 
  -20.624485    6.3451417 
  -56.986809    6.3412769 
  -9.4833691    6.3368423 
   24.669533    6.3323129 
   25.100177    6.3280301 
  -17.268879    6.3239984 
  -2.2562261     6.319794 
    65.46738     6.315567 
   21.705996    6.3119947 
-0.068516169    6.3086394 
   12.437038    6.3052835 
   4.7009787    6.3020519 
  -58.474723    6.2988673 
    33.22039     6.295098 
   4.0044299    6.2916609 
  -39.000633    6.2882639 
  -26.943139    6.2844768 
   14.080825    6.2804203 
  -5.2127267    6.2765046 
  -35.472481    6.2725368 
   19.366613    6.2682142 
    22.96994    6.2640854 
   5.4056903    6.2601862 
   45.872934    6.2563411 
  -45.939139    6.2529547 
  -1.3062594    6.2491089 
   47.787222    6.2452501 
  -22.093063    6.2418691 
    17.87802    6.2382672 
   -31.55442    6.2348441 
   30.393071    6.2311054 
   15.983243    6.2276707 
  -32.706195    6.2243958 
   54.641169    6.2207938 
   32.009293    6.2177382 
   2.8758153    6.2150028 
   1.2601608    6.2122961 
  -20.852275     6.209602 
   -27.67001    6.2066993 
     30.5235      6.20352 
   78.213703    6.2006459 
  -67.005805     6.198554 
  -6.9546509     6.195792 
    32.19646    6.1929604 
  -79.300098    6.1904508 
 -0.67683603    6.1871482 
  -6.5407981    6.1838389 
   24.854802    6.1804641 
   6.6300509    6.1773379 
  -8.1883212     6.174278 
   13.896563    6.1711362 
  -32.710673    6.1681333 
  -21.414753    6.1648034 
   27.810847    6.1612593 
  -52.111968    6.1579933 
  -13.193246    6.1542062 
  -7.7057648    6.1502872 
   10.699081    6.1462911 
   -5.459938     6.142402 
  -35.952172    6.1384583 
   49.547548     6.134155 
   76.809181    6.1303473 
   97.115893    6.1273076 
   20.578406    6.1252391 
   9.4408999    6.1233764 
  -96.216854    6.1216081 
   2.7186295    6.1188776 
   43.945304    6.1161743 
  -43.801306    6.1139105 
  -7.0139162    6.1112087 
  -47.533519    6.1084367 
   9.6241303    6.1051894 
    53.20824    6.1020383 
   13.427997    6.0994193 
  -30.435823    6.0969346 
   21.736759    6.0941455 
  -48.306466    6.0915738 
   46.058674     6.088519 
   55.869957    6.0859248 
   41.957507    6.0838893 
  -23.032014    6.0822734 
  -14.351008    6.0804272 
   -35.39311    6.0784374 
   9.3315915    6.0760938 
   36.586213    6.0738434 
  -20.939411    6.0719589 
   78.996837     6.069865 
  -18.491808    6.0685611 
   29.767275    6.0670723 
  -9.8637751    6.0658811 
  -6.3871221    6.0645913 
  -8.1795234    6.0632376 
   22.520904    6.0618021 
  -2.1010093    6.0605919 
   77.215612    6.0593606 
   39.450083    6.0589015 
   33.201243    6.0588369 
   25.938615    6.0591043 
    5.698344    6.0596311 
  -45.207299    6.0602148 
    2.657201    6.0603465 
   27.448611    6.0605048 
  -45.435822    6.0609375 
  -16.032316    6.0609159 
   16.225443     6.060734 
  -31.173554    6.0607143 
   2.5093593    6.0603829 
   66.342487    6.0600766 
  0.62315659    6.0604337 
   6.8368897    6.0607971 
  -43.001157    6.0612288 
   19.048412    6.0612305 
  -98.476537    6.0614226 
   4.3587579    6.0606301 
  -7.5242683    6.0598811 
   14.115387    6.0590568 
   71.653862    6.0583737 
   3.7932233    6.0584072 
  -18.347974    6.0584786 
  -73.767934    6.0583665 
   37.142244    6.0575167 
   61.696208    6.0570384 
   5.0234887     6.057177 
   3.9232685    6.0573658 
  -46.387071    6.0575939 
  -9.3492345    6.0573581 
   2.4550708    6.0570288 
  -12.966257    6.0567241 
   17.918191    6.0562897 
  -50.752775    6.0560345 
   5.7087174    6.0552717 
   59.915756    6.0545661 
    35.04774    6.0544596 
   25.377626    6.0547036 
    15.51949    6.0552013 
  -52.993587    6.0558543 
   101.46908    6.0559773 
    39.16649     6.057115 
  -10.935012    6.0586444 
   6.0408283    6.0600644 
   -18.55103    6.0615448 
   56.216515    6.0628397 
  -14.169377    6.0646968 
   35.376809    6.0664122 
   14.893407    6.0684814 
   23.368936    6.0706995 
   18.997453    6.0731512 
   18.677801     6.075793 
  -80.636147    6.0786215 
    94.66121    6.0806437 
   36.202625    6.0836125 
  -12.047262    6.0869433 
  -5.0265565    6.0901536 
   5.6358919    6.0933137 
   14.932841    6.0965302 
  -10.467662    6.0998959 
  -20.510774     6.103157 
    8.856608     6.106213 
  -58.377801    6.1093575 
   22.289987    6.1119183 
   32.859555    6.1147019 
   24.240831    6.1178142 
   4.3082351    6.1211689 
  -56.210459    6.1245666 
   6.1981777    6.1274023 
    51.86791    6.1302999 
   51.937845    6.1337162 
   -1.046143    6.1376519 
  -16.138486    6.1415771 
  -26.943478    6.1453409 
  -36.050377    6.1488354 
   6.1036318    6.1519693 
    39.99621    6.1551642 
  -4.9813614    6.1587591 
   45.052396    6.1623042 
   51.462137    6.1662998 
   48.983305      6.17081 
  -19.590185    6.1758101 
   26.779506    6.1806142 
  -14.435378    6.1856862 
   27.526293    6.1906138 
   26.291503    6.1958167 
   24.168136    6.2012824 
   -23.32951    6.2069899 
  -16.806614    6.2124641 
   21.372207    6.2177702 
   -14.55789      6.22329 
   -36.49275    6.2286642 
  -38.542431    6.2336736 
  -41.724493    6.2382974 
  -13.932928    6.2425041 
   57.606478    6.2465714 
    15.16571    6.2512148 
   22.747404    6.2560098 
  -2.3309678    6.2610324 
   38.563492    6.2660316 
   39.654517    6.2714164 
    54.31149    6.2771978 
   88.070384    6.2835223 
   2.2097581    6.2907275 
   68.087989    6.2979548 
   6.7105178     6.305863 
   14.544798    6.3138382 
  -50.732247     6.321959 
  -9.2206548    6.3295724 
    -16.8094    6.3370936 
   76.419103    6.3444467 
   22.165387     6.352564 
   44.371529     6.360903 
  -15.332395    6.3696856 
  -26.879891     6.378315 
  -21.696745    6.3866755 
  -5.7839479    6.3948191 
   -31.86741    6.4029049 
  -46.995307    6.4106719 
   41.891596     6.417969 
   30.536819    6.4256851 
  -32.006913    6.4337065 
  -46.515451    6.4414078 
   13.642125     6.448644 
  -57.952421    6.4560166 
  -32.197301    6.4628096 
   -12.24434    6.4692807 
   -32.93549    6.4756294 
   47.636305    6.4816487 
   5.3312542    6.4881444 
   66.985859    6.4946933 
  -18.042938    6.5019122 
   47.994196    6.5089506 
  -16.173544    6.5164689 
   -47.90737    6.5238255 
   41.437342    6.5307031 
   14.238175     6.537995 
   7.0547744    6.5454293 
   7.2989599    6.5529341 
   29.267596    6.5605119 
  -35.444245    6.5683824 
  -3.8354402    6.5758985 
   32.501783    6.5833762 
  -73.639614    6.5911789 
   4.3548036    6.5982453 
  -40.221286    6.6053552 
   -10.00145    6.6120628 
   26.681806    6.6186705 
    7.643519    6.6255449 
  -34.925432    6.6324959 
  -49.576842    6.6390975 
   21.882945    6.6452034 
  -26.741105    6.6515281 
  -54.175413    6.6575854 
   -53.17433    6.6631009 
    13.00055    6.6680847 
  -17.874558    6.6731986 
  -68.357168    6.6781336 
  -33.992061    6.6823851 
   12.975215    6.6862967 
   8.3938043     6.690338 
   14.787167    6.6944633 
   54.148466    6.6987364 
   37.790586     6.703551 
  -19.700588    6.7087435 
  -43.102034    6.7137391 
  -55.581115    6.7183036 
   51.276834    6.7223122 
  -5.0186437    6.7268337 
   2.7683534     6.731305 
  -53.381963    6.7358039 
   3.0097473     6.739769 
  -24.357199    6.7437643 
   14.816049    6.7475159 
  -45.297776    6.7514157 
   22.903899    6.7548626 
   6.4426584    6.7585385 
  -49.810613    6.7622788 
   47.422091     6.765521 
   14.379978    6.7692374 
   55.977692    6.7730976 
    -7.17381    6.7775176 
  -25.874315    6.7818659 
  -28.422268    6.7859554 
  -39.383608    6.7897607 
   11.420902    6.7931721 
   36.416465    6.7966978 
  -4.1972218    6.8005876 
  -43.286777    6.8044355 
    2.817013    6.8078505 
   41.519361    6.8112936 
  -19.686244     6.815152 
    -2.01777    6.8188135 
  -30.792958    6.8224548 
   80.615323    6.8257882 
   27.741747    6.8299277 
    51.40819    6.8343447 
   29.126433    6.8392757 
   8.6057596     6.844498 
   15.580203    6.8498064 
  -20.598576    6.8552705 
   15.977379    6.8605287 
   17.601228    6.8659467 
  -29.977914    6.8715406 
  -15.801021    6.8768348 
  -38.831156     6.881971 
  -34.744867    6.8867188 
  0.20999565    6.8911193 
    5.666301    6.8955218 
  -11.938795    6.8999809 
  -28.669306    6.9043207 
   5.6632729    6.9083738 
  -31.465562    6.9124835 
   74.997776    6.9162786 
  -14.264617    6.9208237 
  -11.916803    6.9252261 
  -21.382217    6.9295093 
    2.363319    6.9335787 
  -19.854369    6.9376718 
  -26.284208    6.9415663 
   75.478773    6.9451979 
  -35.866807    6.9495844 
   32.277856    6.9536122 
   51.680312    6.9579627 
   80.442541    6.9628301 
  -83.494868    6.9685019 
   21.052641    6.9733387 
   56.672199    6.9783861 
   37.936723    6.9840001 
   42.347314    6.9899936 
  -25.958334    6.9964105 
  -57.074922    7.0025679 
    20.38217    7.0081545 
  -6.2687819    7.0139449 
  -36.363058    7.0196726 
   -49.09096    7.0250367 
   41.029934    7.0299099 
   -35.75931    7.0351934 
  -23.273309    7.0401193 
  -8.8638423    7.0448124 
  -43.718943     7.049417 
  -14.522902    7.0535843 
  -7.6763119    7.0576064 
  -26.414964    7.0615517 
  -39.234756    7.0652329 
  -21.957601    7.0685218 
   59.276881     7.071591 
  -78.451114    7.0752531 
  -19.883571    7.0781306 
  -6.8554633    7.0808093 
  -40.451098    7.0834194 
    28.67529    7.0856251 
   7.7344741    7.0881174 
   1.4629464    7.0906872 
   -14.62745    7.0932715 
   48.054998    7.0957096 
   16.608959    7.0986282 
  -46.436842    7.1017129 
  -26.563747    7.1043333 
  -16.900374     7.106688 
  -28.297756    7.1088737 
  -79.282972    7.1107764 
  -51.763927    7.1118863 
  -42.044116    7.1124786 
  -19.752965    7.1126504 
    46.87074    7.1126247 
  -18.376968    7.1130677 
   12.070633    7.1133269 
  -90.579374    7.1137068 
  -43.092278     7.113181 
  -24.724249    7.1122242 
  -24.126555    7.1110202 
  -11.893627    7.1095749 
  -81.465976    7.1080107 
  -70.019111    7.1056318 
  -3.8546597    7.1025527 
  -51.296689    7.0994351 
    11.07965    7.0958045 
   13.486543    7.0922847 
   41.814011    7.0888997 
  -35.903736     7.085933 
   50.319689    7.0826071 
  -3.2124134    7.0797845 
   33.899334    7.0769297 
  -27.069111     7.074414 
   24.313626    7.0716275 
  -10.405415    7.0690842 
   66.934578    7.0664368 
   14.220609    7.0644588 
   28.884811     7.062623 
  -26.103407     7.061076 
  -24.135264     7.059268 
  -77.207708    7.0572187 
   9.0571868    7.0543972 
  -6.3457851    7.0516664 
   3.0837611    7.0488721 
    27.71333    7.0461086 
   19.423396    7.0436222 
   37.059304    7.0413301 
   15.059218    7.0394086 
  -51.343121    7.0376377 
  -18.916437    7.0353533 
   53.090196    7.0328798 
  -49.608853    7.0309372 
    29.58834    7.0284984 
   10.161964    7.0263556 
  -27.968647    7.0243144 
   10.676467    7.0219935 
   36.888549    7.0197794 
  -33.369976    7.0179341 
   70.438328    7.0157552 
   -34.16729    7.0142806 
   16.079344    7.0124644 
   39.247939     7.010809 
   39.517038     7.009546 
  -72.399237    7.0086782 
  -6.4783874    7.0070864 
   9.3588672    7.0054298 
   18.016257    7.0038669 
    -43.5862    7.0024841 
   2.7579463    7.0006654 
    -17.5755    6.9988743 
  -36.175827    6.9969074 
   48.955217    6.9945788 
  -1.8734047    6.9927397 
  -2.3449762     6.990882 
  -70.047354    6.9890007 
   46.398941     6.986419 
  -11.856561    6.9843013 
   25.426357     6.982065 
  -34.089296    6.9800829 
   17.376329      6.97776 
   -29.02811    6.9756109 
   58.992363    6.9731714 
 -0.14937615    6.9713219 
  -4.4061935    6.9694709 
   39.856357    6.9675758 
   30.392721    6.9660793 
  -6.1029486    6.9648867 
   3.8553665    6.9636331 
  -6.5932682    6.9624181 
  -40.436762    6.9611371 
   23.103693    6.9594517 
  -82.703508    6.9579974 
   32.477479     6.955716 
  -16.501103    6.9537595 
   35.222146    6.9516379 
   11.555912    6.9498685 
   45.819516    6.9482147 
   17.228636    6.9470191 
  -26.901006    6.9459957 
  -77.643093    6.9447034 
   49.554048    6.9426346 
   34.173104    6.9410614 
   23.920481    6.9398299 
    75.57321    6.9388376 
   6.2571353     6.938601 
   3.2560976     6.938427 
  -24.504898    6.9382856 
   5.2798735    6.9378991 
   8.6984359    6.9375654 
  -33.211034    6.9373187 
  -69.819264    6.9367399 
   18.484623    6.9354629 
  -22.354526    6.9343708 
  -23.024525    6.9330551 
  -46.834377    6.9315091 
   -17.38473    6.9294949 
   100.35127    6.9273067 
   2.0830314    6.9261221 
  -2.2799339    6.9249583 
   37.683073    6.9237717 
  -77.047721     6.922962 
  -2.6541986    6.9213817 
  -19.140443    6.9197749 
   -16.16179    6.9179768 
   35.839095     6.916017 
  -2.1009512    6.9144155 
   47.020089    6.9127931 
  -28.458555    6.9116409 
   18.184679    6.9102041 
  -28.187488    6.9089491 
   -34.36271    6.9074123 
   18.819911    6.9055318 
  -41.980218    6.9038396 
  -30.191154    6.9017275 
  -34.891384    6.8993135 
   1.6066997    6.8965507 
   51.725402    6.8938038 
   3.8410301    6.8915743 
   58.157608    6.8893831 
   24.753922    6.8877735 
  -33.365406    6.8864115 
   5.0957323    6.8847158 
  -33.670798    6.8830711 
   2.0420981    6.8810896 
  -37.956993    6.8791286 
    23.15812     6.876788 
  -82.098857     6.874679 
   64.840231     6.871749 
   40.477673    6.8694674 
   -5.807086    6.8675905 
   70.920713    6.8656556 
   19.852188      6.86443 
  -6.5450772    6.8634028 
   42.561786    6.8623102 
   56.075499    6.8616432 
   -21.15474    6.8615369 
  -12.011397    6.8612191 
  -45.882256    6.8607812 
   13.476024    6.8598845 
   48.687564    6.8591225 
  -78.797381    6.8588475 
  -13.825154    6.8577844 
   18.563029    6.8565831 
  -1.3286686    6.8555674 
   41.505966    6.8545384 
   10.967424    6.8539245 
  -37.443712    6.8534203 
   4.8114737    6.8525416 
  -19.909203     6.851711 
  -16.081805    6.8506814 
   12.378188    6.8494909 
   31.808005    6.8484242 
  -10.599903    6.8476756 
  -50.139984     6.846821 
   -35.35658     6.845465 
  -6.7185993    6.8437554 
   26.997817    6.8419786 
   68.508269    6.8404718 
  -32.206087    6.8396501 
   -82.41369    6.8385064 
  -26.667491    6.8365385 
   22.528709    6.8343039 
   43.962632    6.8322946 
  -49.740709     6.830725 
   6.8295563    6.8286579 
   56.070121    6.8266591 
   21.195303    6.8252211 
   26.347637    6.8239949 
  -56.841729    6.8230323 
    28.77511    6.8215012 
   -40.44953    6.8202579 
   41.504471    6.8186101 
    15.65967    6.8173774 
    10.43786    6.8163012 
  -35.911688    6.8153294 
  -47.932408    6.8139985 
   11.185086    6.8121883 
  -2.0392561    6.8104899 
   65.599566    6.8087712 
  -26.688189    6.8077084 
   7.8382626    6.8063788 
  -27.124664    6.8051275 
   20.093595     6.803605 
  -73.942474    5.3102047 
   62.672575    5.3080304 
   90.630739    5.3064829 
  -46.292308    5.3058417 
    20.21195    5.3047375 
   41.764584    5.3038355 
    30.46982    5.3033511 
  -53.018686    5.3031714 
    41.06102    5.3024615 
   10.314797    5.3021622 
   61.223201    5.3019661 
   5.9393498    5.3023822 
   11.853213    5.3028577 
  -3.5004419    5.3034517 
  -11.294822    5.3040108 
   20.510254    5.3044569 
   82.927885     5.305108 
   38.868202    5.3065885 
   1.2228327    5.3084576 
  -103.85006     5.310339 
  -24.054803    5.3111819 
   65.025676    5.3117842 
   6.8692863    5.3130368 
   23.528506    5.3143581 
  -34.278644    5.3159146 
   28.191561    5.3171284 
  -18.531475    5.3186241 
  -40.581656    5.3199345 
  -24.535863     5.320839 
  -10.916818    5.3214982 
   16.210387    5.3220482 
   6.3193198    5.3227604 
  -60.045865    5.3235357 
   35.299699    5.3237106 
  -17.173036    5.3242384 
   18.035219    5.3245946 
  -22.317586    5.3251311 
   23.835626    5.3254444 
  -73.101723     5.325996 
  -4.1903459    5.3258167 
  -67.568289    5.3255954 
  -22.734534    5.3246985 
  -33.518114    5.3235742 
   26.945226    5.3221148 
  -65.224981    5.3209247 
   11.471883    5.3190825 
  -16.823346    5.3173549 
  -27.022142    5.3154592 
   16.721925    5.3132932 
  -38.277127    5.3112944 
  -40.194479    5.3089129 
   11.759997    5.3061294 
   53.303663    5.3034635 
   58.700327    5.3013306 
  -29.584566    5.2997848 
  -23.895317    5.2979431 
  -43.359095    5.2958624 
  -54.403839    5.2933482 
   44.719211    5.2902899 
    30.24848    5.2876788 
  -29.905538    5.2853702 
  -80.776273    5.2827625 
   52.510976    5.2793471 
   -8.220727    5.2764568 
   41.497678    5.2734843 
  -12.014203    5.2709267 
  -10.485928     5.268249 
   -49.53451    5.2654665 
   -6.659461    5.2621886 
  -73.895696    5.2588441 
  -36.027569    5.2547607 
   57.726156     5.250317 
  -47.237225    5.2464505 
  -45.729098    5.2421117 
   11.736799    5.2373156 
   58.167558    5.2326368 
    13.89277    5.2285397 
    19.50231    5.2245816 
   49.059663    5.2208185 
   3.7645273    5.2175459 
   38.465724    5.2143111 
  -12.745708    5.2114608 
   5.4512442    5.2084832 
  -33.476151      5.20556 
  -39.712376    5.2023021 
   48.618571     5.198647 
  -9.8020187    5.1954781 
   12.269943    5.1922112 
  -39.339357     5.189067 
    8.788779    5.1855295 
  -19.536095    5.1820798 
   33.592661    5.1784347 
  -10.032437    5.1751256 
  -23.997724    5.1717161 
  -3.5423487    5.1680667 
   36.883614    5.1643818 
  -5.2377627    5.1610658 
  -38.594944    5.1576974 
  -48.193173    5.1539431 
  -10.377301    5.1497068 
  -21.653121    5.1453667 
   51.891787    5.1408102 
  -31.683952    5.1367725 
  -15.314841     5.132418 
  -70.933712    5.1279103 
  -19.109937    5.1226934 
   -33.74325    5.1172853 
   41.191129    5.1115397 
  -1.8052636    5.1062061 
   30.206208    5.1008545 
   13.993799    5.0958049 
  -88.664734    5.0908952 
  -1.6602898    5.0850989 
   2.7259293     5.079286 
   0.2509741    5.0735003 
   22.476367    5.0677172 
   24.899289    5.0621588 
   37.704326    5.0568494 
  -4.1449827    5.0519171 
   -15.64693    5.0469433 
  -24.413338     5.041813 
  0.37186963    5.0364386 
   20.881161     5.031068 
  -70.320214    5.0259061 
    43.08547     5.020041 
   22.861118    5.0146068 
  0.25171133    5.0094012 
   22.943771    5.0041981 
  -34.441885    4.9992245 
  -13.312498    4.9939064 
  -47.983525    4.9884552 
 -0.52175024    4.9825242 
   19.705301    4.9765879 
   39.724732    4.9708488 
   8.7063185    4.9655068 
   29.624003    4.9602519 
    29.66197    4.9552933 
  -4.8094321    4.9506313 
  -8.2001167    4.9459212 
   25.413917     4.941129 
   22.465431    4.9365911 
  -30.469031    4.9322777 
  -23.844845    4.9276597 
   16.289748    4.9228033 
   23.492328    4.9181097 
   6.6807581    4.9136511 
   39.061088    4.9092592 
   31.563856     4.905258 
  -55.278191    4.9015724 
  -31.626336    4.8973341 
   11.861845    4.8927794 
   17.118528    4.8883434 
  -31.724219    4.8840786 
   23.000439    4.8794965 
   40.451243    4.8751445 
   32.241184    4.8711969 
   2.8841461    4.8675718 
   35.191266    4.8639755 
  -41.617177    4.8607311 
  -6.3299741    4.8570705 
    -55.5978    4.8533467 
    1.865146    4.8490668 
   10.850979    4.8448057 
  -22.536961     4.840653 
   23.916192    4.8362749 
   98.153897    4.8321361 
   -50.41872    4.8289787 
   -29.07667    4.8253172 
   8.0830595    4.8213649 
  -18.093345    4.8174934 
   36.882479     4.813441 
  -17.908845    4.8097575 
   53.630576    4.8058948 
  -16.423186    4.8025684 
   10.335977    4.7990778 
   54.751538    4.7956906 
   6.2842812    4.7928509 
  -23.135868     4.790074 
   47.475847    4.7870658 
   30.388898    4.7845323 
   13.301269    4.7823028 
 -0.18471434    4.7802062 
   2.6810934    4.7781078 
  -35.144357    4.7760362 
  -42.561274    4.7736131 
   -43.42083    4.7707645 
  -2.1682458    4.7674816 
   -6.966684     4.764177 
   18.592765    4.7608028 
   16.404369    4.7576145 
  -49.060998    4.7545903 
   41.351389    4.7510754 
    54.06209    4.7479741 
  -24.504147    4.7454134 
  -44.381789    4.7426076 
  -33.347772     4.739358 
  -16.319532    4.7357749 
  -32.770953    4.7320287 
   19.064714    4.7279547 
  -2.1137007    4.7240714 
  -6.8383515     4.720167 
  -31.560373    4.7161941 
   27.381507    4.7119057 
   35.257797     4.707891 
  -12.698647     4.704229 
  -23.396123      4.70044 
   69.002037     4.696417 
   31.376299     4.693084 
   73.061764    4.6900648 
  -36.405839    4.6877762 
   18.999013    4.6851235 
  -4.2960584    4.6826609 
  -43.017625    4.6801552 
  -24.210553    4.6772194 
     24.6967    4.6740415 
  -28.697939    4.6711106 
  -8.2951873    4.6678927 
   6.3204221    4.6645918 
   65.209929    4.6613541 
  -35.197336    4.6587686 
   11.115403     4.655831 
    64.35558    4.6530046 
  -28.919914    4.6508218 
   23.912121    4.6483498 
   55.662937    4.6461169 
  -37.469056    4.6444406 
   1.2720805    4.6423896 
  -1.1979573    4.6403514 
  -48.177175    4.6383012 
   32.932728    4.6357692 
  -40.447618    4.6335665 
  -40.744802    4.6309593 
  -22.213301    4.6279447 
  -30.741732     4.624708 
   27.454706    4.6211639 
   6.1542561    4.6178943 
  -20.238804    4.6146862 
   23.481406    4.6112758 
   -29.76813    4.6081001 
   9.2967296    4.6046268 
   63.216595    4.6012465 
   16.686776    4.5984983 
  -1.3009973     4.595917 
  -12.430805    4.5933227 
   11.197122     4.590604 
   3.9842556    4.5879974 
  -36.543536    4.5854305 
  -65.814397    4.5824983 
  -11.999784    4.5789079 
   1.7361068    4.5751975 
   41.897493    4.5715045 
    33.11602    4.5682304 
    27.02713    4.5652875 
  -42.417351    4.5626149 
   13.217566    4.5595181 
  -5.1425542    4.5565535 
     7.69579    4.5535374 
   5.0435513    4.5505983 
  -38.961242    4.5477097 
  -38.703743    4.5444314 
  -39.362628    4.5407661 
   16.928224    4.5367072 
    4.838112    4.5328175 
  -53.417033    4.5289763 
   57.253237    4.5246008 
  -17.780488    4.5207979 
   2.3560003    4.5168172 
   49.021654      4.51286 
   62.657832    4.5093931 
   20.225535    4.5065528 
   3.4760388    4.5039146 
   64.984366    4.5013113 
   44.109664    4.4993578 
  -36.718903    4.4978454 
  -52.145529    4.4959658 
    22.12718    4.4935648 
    60.00625     4.491385 
  -11.343179    4.4898053 
   49.838298    4.4881122 
   22.728134    4.4869174 
   75.792386    4.4859499 
   16.957841    4.4857404 
   35.630331    4.4857004 
   33.291935    4.4860167 
   38.964954     4.486666 
  -7.2476981    4.4877049 
  -25.662061    4.4886713 
  -87.442348    4.4893811 
  -30.580788    4.4892164 
  -15.391118     4.488746 
  -10.253948    4.4881217 
   -30.13471    4.4873948 
  -7.0764331    4.4863666 
   7.5468385    4.4852676 
   25.606036     4.484244 
  -73.663012    4.4834766 
   12.219977    4.4819725 
   23.521467    4.4805906 
  -30.292828    4.4794439 
   43.153329    4.4779943 
  -5.3614507    4.4769762 
  -20.896911    4.4759045 
  -16.468607    4.4746239 
  -21.829897    4.4731785 
   13.636172    4.4715149 
  -51.599563    4.4699876 
  -41.621011    4.4679443 
   26.555787    4.4654848 
  -35.877374    4.4632909 
  -72.798154    4.4607382 
  -1.8145021    4.4574575 
   42.758922    4.4541587 
   63.858197    4.4512874 
   40.382466    4.4490548 
   56.510806    4.4472259 
  -52.064655    4.4459622 
  -39.885232    4.4441778 
   42.615022    4.4419946 
   78.562844    4.4402375 
   76.072085    4.4392661 
   6.8406343    4.4390553 
  0.64301041     4.438913 
   31.450815    4.4387771 
   37.695799    4.4389558 
  -22.636743    4.4395113 
    23.42688    4.4398405 
   39.210644     4.440404 
   21.504996    4.4413596 
 -0.89184783    4.4425302 
    48.79087    4.4436919 
  -56.382456    4.4453416 
  -30.412022    4.4464274 
   57.603922     4.447209 
  -28.099134    4.4485668 
    43.06396    4.4496435 
  -22.981951    4.4511509 
    36.96074    4.4524284 
    47.31942    4.4540756 
   44.266919    4.4561959 
  -62.911816    4.4587589 
  -14.031837    4.4606928 
   34.679381    4.4624864 
  -42.193563    4.4646268 
  -27.661688    4.4663452 
   13.190275     4.467787 
   42.910933    4.4693608 
    -14.9363    4.4713636 
  -33.430789    4.4732171 
   19.474309    4.4747362 
   49.767333    4.4764501 
   45.008663    4.4786617 
   30.193695    4.4813234 
   33.002631     4.484287 
  -51.317646    4.4875806 
   14.438139    4.4903611 
   17.846811    4.4932859 
   12.509776    4.4963892 
   20.703162    4.4996176 
   39.351705     4.503053 
   7.5620009     4.506882 
  -26.722331    4.5107866 
  -34.604811    4.5144239 
   7.4295818    4.5177152 
   -7.045623    4.5210808 
   25.920512    4.5243759 
  -18.566433    4.5279303 
   15.743597     4.531299 
   15.943818    4.5348251 
   -16.70466    4.5385106 
  -61.899551    4.5420291 
   13.767571    4.5449286 
  -40.172346    4.5479658 
   16.122921    4.5506013 
   20.691502     4.553398 
   47.566155    4.5564016 
   111.49029    4.5598809 
   3.2463212     4.564475 
  -16.038254    4.5691017 
   2.7609379    4.5735679 
   -21.66874    4.5780618 
  -70.953884    4.5823389 
  -6.1554607    4.5859066 
  -44.450142    4.5894127 
    7.155498    4.5924742 
   42.665865    4.5956074 
  -38.296624    4.5991672 
   15.148342     4.602344 
  -44.514765    4.6056723 
  -8.7714319    4.6085555 
   54.693285    4.6113509 
  -11.139471    4.6146933 
    43.86907    4.6179243 
   2.0827199     4.621594 
   3.6279827    4.6252845 
  -33.486859    4.6290112 
     29.3862    4.6324032 
   4.1396205    4.6360889 
  -58.293258    4.6398161 
  -12.349254    4.6429603 
   29.270946    4.6459811 
  -32.882983    4.6492946 
   -40.43564    4.6522792 
   54.593909    4.6548595 
   50.671137    4.6579857 
   87.931015    4.6616186 
   37.359837    4.6661308 
  -11.365745    4.6710166 
  -4.4248391    4.6757888 
  -48.493795    4.6805167 
  -3.6856831    4.6847597 
   9.8538342    4.6889659 
    9.812818    4.6932705 
   94.340675    4.6976733 
   12.103094    4.7030195 
  -27.795873    4.7084868 
   2.8003054     4.713676 
  -18.592457    4.7188933 
   15.426258    4.7239247 
   69.012321    4.7291103 
   72.689021     4.734986 
  -6.1444744    4.7415887 
   -6.271362    4.7481298 
   39.156562    4.7546083 
  -20.031589    4.7614783 
  -22.761707    4.7681481 
   24.620966    4.7745902 
   8.6924755    4.7812785 
   43.326979    4.7880537 
   35.445288    4.7952622 
   12.993717    4.8028252 
 -0.44832361    4.8105181 
   1.7903745    4.8182065 
  -25.097266    4.8259128 
  -23.848327    4.8333682 
   38.274745     4.840585 
  -3.1165631    4.8481846 
   5.6443116    4.8557531 
  -51.488082     4.863378 
  -1.1738593     4.870488 
    12.74125    4.8775863 
   26.526663    4.8848119 
  -28.664447    4.8923029 
  -115.54619    4.8995072 
  0.18483198     4.905556 
    37.57358    4.9116067 
  -15.984342    4.9180331 
   -32.90629    4.9242997 
   27.573058    4.9302372 
  -25.183059    4.9364505 
   22.702886    4.9424119 
   37.208462    4.9486004 
  -54.351652    4.9551609 
  -29.088497    4.9611779 
   29.934087     4.966904 
  -11.277764    4.9729295 
  -1.9557807    4.9788422 
  -22.681579    4.9847353 
   15.320924    4.9904017 
  -16.479695    4.9962212 
   -61.38125    5.0018759 
  -59.858579    5.0069168 
   54.938131    5.0113592 
  -24.571589    5.0163509 
   -37.91206    5.0210969 
    -45.6134    5.0254638 
   51.816699    5.0293745 
   40.349296    5.0338034 
   3.4283258    5.0386358 
  -7.6772132    5.0435025 
  -40.460448    5.0482924 
   12.263449    5.0526778 
  -4.3610297    5.0571857 
  -45.057149      5.06165 
  -11.271705    5.0656638 
   38.804314    5.0695649 
   38.508454    5.0738539 
   43.349645    5.0785281 
  -10.780214    5.0836358 
   44.309567    5.0886357 
   45.598844    5.0940786 
  -22.651094    5.0999776 
   -45.07999      5.10565 
  -42.881273    5.1108717 
   11.135212    5.1156645 
  -19.311882    5.1205687 
   12.950225    5.1252797 
   22.137834    5.1301203 
   12.769845    5.1351822 
  -73.019487    5.1403719 
   30.014695    5.1448313 
  -11.513407    5.1495909 
    5.917212    5.1542354 
 -0.27536537     5.158939 
   6.0080038    5.1636399 
  -57.916708    5.1684009 
   36.927941    5.1725827 
   85.250818    5.1771337 
   14.754841    5.1825373 
   97.643252    5.1880884 
  -38.984823     5.194616 
   32.402704    5.2007537 
  -42.273237    5.2072154 
  -13.600535    5.2132545 
    6.370993    5.2191575 
  -47.893902    5.2251242 
  -22.734892    5.2306119 
  -53.530091    5.2358724 
  -22.925599    5.2405975 
   27.648937    5.2450934 
  -27.313896    5.2498657 
  -55.081594    5.2543649 
    16.80544    5.2583133 
   10.100144    5.2624298 
   66.004305    5.2666472 
   7.6446506    5.2715247 
  -32.524379    5.2764787 
   4.9189402    5.2811074 
  -57.574715    5.2857853 
  -16.842744    5.2898874 
   41.338219    5.2938211 
   26.029812    5.2981682 
  -51.534898    5.3027756 
   70.894458    5.3068677 
   34.156074    5.3116687 
      35.839    5.3168112 
   3.1992132    5.3223122 
  -27.740493    5.3278451 
  -26.155571    5.3331006 
   24.503168    5.3380946 
  -50.836435    5.3433336 
  -15.895615    5.3480643 
  -41.214184     5.352636 
  -17.852759    5.3567955 
   -2.775587    5.3607765 
  -62.744052    5.3647298 
   18.670797    5.3680556 
  -27.314613    5.3715681 
  -50.035934    5.3748075 
   51.683604    5.3775465 
  -17.427071    5.3808024 
   12.967625     5.383884 
  -41.377511    5.3870953 
   23.661324    5.3898927 
  -35.749777    5.3929268 
   36.670992    5.3956035 
  -4.9933753    5.3986468 
   -18.68614    5.4016402 
  -48.724208    5.4044467 
  -43.801382    5.4067659 
  -8.5102255    5.4086472 
   29.042912    5.4104434 
  -43.072272      5.41253 
   62.990812    5.4141858 
 -0.22630692    5.4164716 
  -22.645631    5.4187551 
  -61.214562    5.4208122 
   2.2657772    5.4222571 
  -56.048854    5.4237247 
  -48.451368    5.4246317 
  -28.386322    5.4250543 
  -37.525969     5.425193 
 -0.20466039    5.4249565 
   12.510975    5.4247179 
   3.5818721    5.4246044 
    32.19935    5.4245267 
  -14.525307     5.424771 
   65.461726    5.4248701 
   8.0959303    5.4256238 
  -14.215692    5.4264584 
  -20.210886    5.4271509 
   1.0889985    5.4276413 
  -47.706669    5.4281425 
   5.2462186    5.4281667 
  -22.253276    5.4282434 
   47.252042    5.4280975 
   18.847777    5.4284242 
   31.626792    5.4289393 
   70.201342    5.4297707 
   61.222601    5.4313041 
  -12.921188    5.4334497 
  -58.695594    5.4354662 
  -21.034175    5.4368956 
   61.160298    5.4381148 
  -22.371738    5.4399455 
   46.191398    5.4415525 
  -26.519455    5.4436214 
   20.612773    5.4454252 
   4.1441328     5.447435 
   -30.36821    5.4494863 
   9.0388352    5.4512339 
   13.043365    5.4530719 
  -12.911914    5.4550404 
    21.39869    5.4568797 
    26.47958     5.458933 
  -53.205743    5.4612511 
   8.5853831    5.4630372 
    26.20672    5.4649091 
  -18.046844     5.467043 
   3.3815388    5.4689965 
  -30.727145    5.4709838 
  -25.943587    5.4726639 
   19.279928    5.4740845 
  -19.708239    5.4756979 
  0.60115363    5.4771142 
   17.129773    5.4785366 
    17.32202    5.4801302 
    6.467472     5.481897 
  -10.936384    5.4837286 
   16.700797    5.4854507 
   15.030228    5.4873399 
   14.951934    5.4893794 
   23.195962    5.4915684 
   -41.47316    5.4939893 
  0.92780984    5.4959956 
  -1.6675384     5.498011 
   12.663581    5.5000099 
  -24.448171    5.5021353 
   36.015124    5.5040163 
   -7.621834    5.5062574 
   58.308165    5.5084224 
 -0.69500295    5.5111703 
  -35.627424    5.5139114 
   66.054245    5.5162962 
  -25.701579    5.5193415 
   10.751548    5.5221298 
   13.107051    5.5250256 
  -119.00606    5.5280525 
   51.771631    5.5298893 
  -28.564252    5.5322438 
  -26.965742    5.5343127 
  -10.818285    5.5361119 
  -23.553177     5.537803 
  -4.0413232    5.5392585 
  -47.297153    5.5406736 
   -67.85115    5.5416158 
   7.5589629    5.5418794 
  -10.481649    5.5422186 
   5.5428537     5.542453 
   59.212434    5.5427428 
  -93.069409    5.5436248 
   28.271718    5.5435761 
  -27.459719      5.54381 
  -36.238154    5.5437694 
  0.74606664    5.5433664 
   46.104147    5.5429709 
  -30.537942    5.5430364 
  -10.568426    5.5427965 
   -15.72989    5.5424509 
   17.156682     5.541948 
  -27.207332    5.5416168 
  -59.613617    5.5410134 
  -22.174769    5.5398139 
    -1.00939    5.5383926 
  -20.807986    5.5369613 
   69.231929    5.5353218 
  -32.200278    5.5343747 
   37.590814    5.5331056 
   32.824895    5.5322124 
  -28.768517    5.5316475 
  -14.536311    5.5307948 
  -9.0386443    5.5297968 
  -10.400363    5.5287084 
  -30.014831     5.527516 
   39.245132    5.5260235 
 -0.19775872    5.5249234 
  -28.854581    5.5238213 
  -83.980145    5.5224307 
    17.94265    5.5202003 
  -33.582077    5.5181493 
  -16.435642    5.5157625 
   9.5991469    5.5132114 
   22.739843    5.5107562 
  -11.333651    5.5085284 
  -81.363766    5.5061873 
   22.101596    5.5030325 
   57.147631    5.5000988 
  -20.951909    5.4977366 
  -26.348562    5.4951648 
   3.1443381    5.4923295 
  -36.857605    5.4895257 
  0.73729799    5.4863533 
  -28.338853    5.4831883 
   8.1782638    5.4797399 
   4.1017653    5.4763732 
  -68.235413    5.4730476 
   38.100908    5.4690397 
  -14.794358    5.4654127 
   15.750419    5.4616378 
  -9.6669106    5.4580204 
  -19.798271    5.4543064 
   25.766267    5.4503943 
   4.3009152    5.4467399 
   3.6508907    5.4431286 
  -32.156234    5.4395537 
   21.896437    5.4356573 
  0.20264542    5.4319798 
   4.5425389    5.4283044 
  -63.573529    5.4246744 
  -39.795359    5.4204086 
   48.831128    5.4157449 
  -72.099758    5.4115695 
   17.093366    5.4066731 
   33.296363    5.4019477 
   40.738498    5.3975552 
  -24.184515    5.3935701 
   50.238758    5.3893431 
  -39.773387    5.3856186 
   5.2141764    5.3814963 
  -37.962063    5.3774261 
  -16.559711    5.3729763 
  -25.166372     5.368361 
   53.890392    5.3634939 
  -30.528351    5.3591658 
  -19.475407    5.3545324 
   12.227664    5.3497042 
  -23.277726    5.3449983 
   7.4587525    5.3400597 
   40.787868    5.3351956 
    -57.2495    5.3307394 
  -62.045804    5.3257107 
  -22.080394    5.3200615 
  -4.3780184    5.3141916 
   21.416759    5.3082778 
  -34.994533    5.3025782 
  -24.832017    5.2965287 
   52.797272    5.2902309 
  -49.471551     5.284461 
  -45.076705    5.2781964 
   1.4550407    5.2714811 
   20.780964    5.2647803 
  -52.861589    5.2582873 
   9.6150616    5.2512657 
   -33.38985    5.2443403 
    25.90572    5.2370809 
   21.108924    5.2300806 
   18.045553    5.2232914 
   75.402133    5.2166826 
   17.712964    5.2108279 
  -8.9680504    5.2051503 
  -40.838534     5.199383 
   74.609644    5.1932074 
  -49.673302    5.1877778 
  -26.869813    5.1818515 
    44.84445    5.1756565 
   64.241129    5.1699099 
  -18.812984    5.1648058 
   16.327357    5.1595135 
  -56.840382    5.1543845 
  0.33070481    5.1486871 
   58.688671     5.142993 
  -44.206597    5.1378858 
   39.685775    5.1323365 
   51.665608    5.1271841 
   31.891892    5.1225484 
   20.784364    5.1182315 
   46.093645    5.1141225 
   20.832694    5.1104745 
   36.481421    5.1070347 
  -15.463868    5.1039598 
  -68.423871    5.1007302 
   54.397011    5.0968164 
   35.656486    5.0934466 
 -0.69509275    5.0904333 
  -2.7142232    5.0874131 
  -82.269558    5.0843658 
   20.922112    5.0804957 
   35.957849    5.0768349 
  0.35203005    5.0735336 
  -36.446389    5.0702359 
   39.249967    5.0665737 
  -31.048795     5.063304 
  -72.751675    5.0597238 
  -1.7334487    5.0554161 
   46.482166    5.0510911 
  -38.511339    5.0472309 
   13.347238    5.0429855 
  -29.374627    5.0388737 
   39.628199    5.0344681 
   27.136693    5.0304587 
   87.007762    5.0267208 
   19.176757    5.0238529 
   31.852756    5.0211768 
   13.749249    5.0188192 
   2.0276806    5.0165991 
    44.97951    5.0143993 
  -18.827736    5.0126493 
   23.448775     5.010711 
  -16.051686    5.0090072 
  -57.281887    5.0071429 
  -49.894471    5.0047057 
  -60.748456    5.0017697 
  -43.515843    4.9982261 
  -33.374096    4.9942474 
   43.974612    4.9899349 
   2.1554631    4.9860622 
  -101.00757     4.982211 
  -5.7491737    4.9773498 
   36.584271     4.972431 
  -16.165711    4.9678781 
  -62.709605    4.9631636 
  -31.069675    4.9578219 
   33.922599    4.9521696 
  -45.760918    4.9468565 
  -48.763593    4.9410857 
  -30.431702    4.9348274 
  0.71164894    4.9282647 
   22.300552    4.9217091 
   24.664455    4.9153766 
  -30.138212    4.9092906 
   58.003741    4.9029034 
   38.445066    4.8970961 
  -46.276302    4.8916733 
   14.934063    4.8857877 
  -42.874155    4.8800515 
   24.141413    4.8738865 
  -13.504185     4.867963 
  -17.904829    4.8619044 
   8.3190358    4.8556667 
   13.013703    4.8495122 
  -9.2145244    4.8434879 
   30.980147    4.8373715 
    29.69591    4.8315648 
   94.554701    4.8260551 
  -2.4359645    4.8214909 
  -56.024705    4.8169024 
  -17.521573    4.8117537 
   51.461465    4.8064297 
  -40.323861    4.8016203 
   35.694895    4.7964077 
   5.3248902     4.791552 
   9.0207556    4.7867496 
    52.06839    4.7820374 
   34.763547    4.7778459 
   52.426455     4.774002 
   115.26519    4.7706824 
  -20.277227    4.7685155 
  -31.994054    4.7661457 
  -35.176339    4.7634561 
   35.083299    4.7604146 
   3.2213862     4.757724 
   26.408343    4.7550656 
    82.65836    4.7526713 
   24.798591    4.7511036 
  -11.465021    4.7497838 
   88.737792    4.7483494 
   11.107879    4.7478024 
  -10.058724    4.7473665 
  -45.201039      4.74683 
  -64.001676    4.7458415 
  -13.318835    4.7442129 
   47.418154    4.7424512 
  -72.943547    4.7411636 
  -43.282836    4.7391466 
  -28.740009    4.7366968 
  -9.1632459    4.7339596 
 -0.88400488    4.7311307 
  -43.154994     4.728293 
   49.659171    4.7250238 
   29.943838    4.7222512 
  -2.5495449    4.7197779 
   2.1537155    4.7172792 
   26.128513    4.7148021 
  -33.198538    4.7125862 
  -26.046144    4.7100383 
   20.805589      4.70723 
  -29.609486    4.7046297 
   14.761752    4.7017333 
    -17.0473    4.6989846 
   -9.191206    4.6960654 
   45.522618    4.6930542 
   41.612968    4.6904983 
  -74.588336    4.6883585 
  -50.613785    4.6854729 
  -4.9437966    4.6820811 
  -13.016103    4.6786398 
   29.060071    4.6750684 
  -2.0422985    4.6717876 
  -22.954056    4.6684864 
   12.697614    4.6649556 
   40.358278    4.6615518 
  -4.9454581    4.6585516 
  -23.566002     4.655502 
  -39.981684    4.6522167 
  -42.212044    4.6485315 
  -26.069347    4.6444243 
  -21.433969    4.6400563 
  -3.7000964     4.635474 
  -10.500147    4.6308547 
  -44.036597    4.6261304 
  -16.900358    4.6209658 
   96.786961    4.6156321 
   41.563607    4.6112663 
   91.291431    4.6073162 
   12.214756    4.6042789 
  -28.429554    4.6013638 
    -11.9367    4.5981644 
   29.613913    4.5948457 
   19.422361    4.5918231 
   26.623134    4.5889947 
   25.327722    4.5864325 
   11.543029    4.5841236 
  -17.227286    4.5819302 
   2.3059328    4.5795644 
  -29.815065    4.5772218 
  -2.3708255    4.5745809 
   11.357791    4.5719164 
   1.1878005    4.5693655 
   14.918697    4.5668264 
  -23.183753    4.5644365 
  -22.595577    4.5618148 
   77.54084