LAMMPS (17 Nov 2016)
Reading data file ...
  orthogonal box = (0 0 0) to (60 30 30)
  2 by 1 by 2 MPI processor grid
  reading atoms ...
  8887 atoms
  scanning bonds ...
  1 = max bonds/atom
  reading bonds ...
  9 bonds
Finding 1-2 1-3 1-4 neighbors ...
 Special bond factors lj:   0          0          0         
 Special bond factors coul: 0          0          0         
  2 = max # of 1-2 neighbors
  2 = max # of 1-3 neighbors
  4 = max # of 1-4 neighbors
  6 = max # of special neighbors
10 atoms in group polymer
1 atoms in group first
Neighbor list info ...
  1 neighbor list requests
  update every 1 steps, delay 10 steps, check yes
  max neighbors/atom: 2000, page size: 100000
  master list distance cutoff = 3.3
  ghost atom cutoff = 3.3
  binsize = 1.65, bins = 37 19 19
Setting up Verlet run ...
  Unit style    : lj
  Current step  : 0
  Time step     : 0.02
Memory usage per processor = 4.13948 Mbytes
v_ftotal c_com[1] c_com[2] c_com[3] 
   130.78628         17.5           15           15 
   122.91582    17.503441    15.003346    15.011499 
   68.907198      17.5118    15.006083    15.020866 
   45.315389    17.522914    15.006185    15.027398 
   139.07931    17.535841    15.007342    15.032377 
   117.70042    17.554331    15.008671    15.038847 
    121.9506    17.577529    15.010318    15.048121 
   100.82842    17.605605    15.010693    15.057491 
   116.72519    17.637715     15.01087    15.067071 
   59.788363    17.674493    15.012706    15.074522 
   51.233235    17.713663    15.015785    15.081872 
   57.085763    17.754882     15.01932    15.089913 
   127.08901    17.798385    15.024253    15.096865 
   52.295751    17.846971    15.028259     15.10457 
   66.792606    17.897649    15.032145    15.113361 
   85.661738    17.950999    15.037298    15.119802 
   24.502596    18.007775    15.041191    15.127901 
   89.183556    18.065531    15.044528    15.134427 
   63.148505    18.126855    15.049262    15.140516 
   83.922044    18.190705    15.052289    15.146797 
   52.283134    18.257911     15.05361    15.155144 
   51.520311    18.327209    15.053653    15.162153 
   104.97355    18.398567    15.055083    15.169567 
   11.266004    18.474125     15.05514    15.179065 
   50.481354    18.550133      15.0547    15.188078 
   17.183974    18.628161    15.053332    15.196653 
   36.565878    18.706875    15.051724    15.205353 
   8.9742522    18.787053    15.052827    15.212638 
   31.742637    18.867589    15.056893    15.220756 
   25.806748    18.949395    15.057828    15.228989 
   23.023451    19.032234     15.05902    15.236186 
   82.718022    19.115993    15.060324    15.242866 
   71.252042    19.203061    15.059926    15.249622 
   12.754241    19.292979    15.057538    15.258925 
   91.061585    19.383408    15.054464    15.267198 
   11.739658    19.477478    15.051928    15.275503 
   29.474462    19.572019    15.050419    15.282587 
   35.829355    19.667738     15.05103    15.289642 
   15.055707    19.764891    15.054626    15.295439 
   29.731549    19.862645    15.058483    15.302114 
  -4.3681222    19.961589    15.062129    15.307056 
   33.292215    20.060359    15.064213    15.310953 
   68.447977    20.160459    15.066679    15.315388 
   5.0440135    20.263298    15.069255    15.319931 
    53.96561    20.366339    15.073162    15.323961 
  -7.9788577    20.471538    15.077218    15.327167 
    47.31661    20.576418     15.07978     15.32904 
   40.994425    20.683191    15.081266    15.332195 
  -2.0425839    20.791604    15.082775    15.334003 
  0.58932424    20.899934    15.083348    15.335883 
  0.80799957    21.008289    15.082339    15.338834 
   22.641679    21.116676    15.081439    15.342078 
   19.065465    21.225968    15.080691    15.344879 
    39.13932    21.336023    15.079669    15.347932 
   79.118196    21.447644    15.077959    15.351372 
    7.605599    21.562429    15.075315    15.354018 
   3.3303635    21.677519    15.072517     15.35782 
   5.7462894    21.792741    15.071401    15.362773 
   48.366663    21.908194    15.069256    15.366945 
  -11.132684    22.025581    15.065291    15.370408 
   5.4870741    22.142523    15.061398    15.372949 
  -26.398452    22.259685    15.058251    15.374843 
   33.083268     22.37579    15.057255    15.372913 
  -33.286921    22.493219    15.056127    15.371125 
  -3.6880742    22.609316    15.054374    15.370292 
  -42.777617    22.725266    15.053222    15.369663 
  -45.478995    22.839505    15.053184    15.368586 
   11.122606    22.951924    15.051925    15.366817 
   17.282189    23.064789    15.052082    15.366166 
  -9.7224306    23.178345    15.050665    15.367465 
  -2.9549743    23.291512    15.046522    15.369497 
   9.5973448     23.40456    15.043424    15.371563 
   -26.03192    23.517993     15.03991    15.373289 
   2.7302269    23.630384    15.035876    15.377849 
  -9.9982522    23.742885    15.031129    15.383095 
  -29.805708    23.854985    15.026094    15.385448 
    52.44154    23.965894    15.021561    15.388566 
  -45.002628      24.0789    15.019113    15.392218 
   16.805794    24.190105    15.016523    15.397547 
  -19.030558    24.301984    15.014877    15.402824 
   28.474741    24.413101    15.011524     15.40913 
  -11.715457    24.525356    15.009433    15.413598 
   -18.84968    24.637144    15.007048    15.414628 
  -33.728521    24.748177    15.003287    15.409473 
  -27.234916    24.857861    14.999537    15.402979 
  -25.160945    24.966456    14.995075    15.396763 
  -20.742784    25.074044    14.992327    15.392338 
  -74.285183    25.180803    14.990012    15.389215 
   4.0998017     25.28459    14.989253    15.387974 
  -19.985768    25.388541      14.9886    15.390057 
  -52.979539    25.491693    14.989945    15.391676 
  -92.318608    25.592726    14.993204    15.393872 
  -67.661729    25.690065    14.989999     15.39077 
  -26.561264    25.784699    14.984582    15.384768 
   -24.80644     25.87827    14.981612    15.377974 
  -15.402932    25.970848    14.980089    15.373026 
  -18.252947    26.062811    14.979768    15.367384 
   55.701669    26.154043    14.980947    15.360662 
   15.525307    26.247504    14.982155    15.354034 
   17.002739    26.341585     14.98599    15.348012 
    30.26043    26.436347    14.988164    15.341451 
  -22.656813    26.532319    14.982931      15.3354 
  -11.456943    26.627385    14.971312    15.331861 
   15.817348    26.721992    14.957353    15.332061 
  -3.7581116    26.817232    14.945716      15.3359 
   40.158438    26.912322    14.935779    15.338121 
     142.287    27.009018    14.926228    15.338002 
   87.247036    27.111406    14.909675    15.340965 
  -9.6197114    27.217284    14.892896    15.348024 
  -39.912424    27.322776    14.877881    15.357887 
  -23.325334    27.426673    14.863685    15.370742 
    -33.4373    27.529636    14.849409    15.385611 
   -67.89822    27.631262     14.83471    15.401946 
   -52.64326    27.730171    14.821681    15.419455 
  -38.285641    27.826976    14.814893     15.43597 
   1.6717748    27.922248    14.816995    15.453375 
  -131.27557    28.017588    14.820516    15.467776 
    -52.8218    28.107676    14.824812    15.472762 
   -65.91916    28.195652    14.829846    15.469171 
  -68.250009    28.280991    14.832864     15.46161 
  -18.232481      28.3636    14.835315    15.452131 
  -39.876129    28.445479    14.834881    15.440515 
  -103.35106    28.525764    14.833221    15.430284 
  -58.435851    28.601914    14.831406    15.421784 
   19.883123    28.675727    14.830668    15.416871 
    21.78665    28.750336    14.833205    15.415583 
   5.8698204    28.825816    14.840153    15.418109 
  -106.34958     28.90153    14.848123    15.415652 
  -122.32594    28.972991    14.867724    15.401081 
  -82.413972    29.039559    14.897608    15.370868 
  -33.195167     29.10283    14.927687    15.339822 
  -55.160622    29.164773     14.95297     15.31468 
  -111.04057     29.22451    14.973636    15.291661 
  -205.75258    29.279805    14.988215    15.272184 
  -296.79413     29.32687    15.001993    15.250665 
 -0.88522117    29.362063     15.02252    15.223397 
  -6.8205094    29.397221    15.040001    15.194959 
   -47.23669    29.432106    15.055058    15.168922 
  -37.622239    29.465102    15.068225    15.144258 
  -143.05855    29.496593      15.0843    15.119579 
  -105.82168    29.522361    15.105964    15.095517 
  -90.909816    29.543897    15.123124    15.074829 
  -4.9988634    29.561796    15.133428    15.053432 
  -8.0550862    29.579495    15.140809    15.032551 
  -10.833361    29.596872      15.1471    15.013035 
  -51.157787    29.613816    15.151848    14.994458 
  -69.463583    29.628713    15.157556     14.97779 
  -51.215338    29.640832    15.163801    14.960891 
   12.398271    29.650902    15.169585    14.946761 
  -13.896234    29.661468    15.176584     14.93458 
   22.675418    29.671479    15.183253    14.923621 
  -13.799309    29.682396    15.190428    14.912717 
   17.903988    29.692761    15.202504    14.900936 
  -19.436385    29.703843    15.218644    14.885366 
  -174.34174    29.714147    15.238667    14.869824 
  -260.89679    29.717477    15.262721    14.854949 
  -3.4929799    29.710371    15.286237    14.833496 
   110.05455    29.703126    15.306658    14.808922 
   120.18627    29.700283    15.325903    14.783244 
   37.453098    29.702248    15.343946    14.758269 
  -2.6305429     29.70571    15.359399    14.736439 
  -106.04562    29.709067    15.372529    14.716852 
  -100.94107    29.708183    15.385408    14.698709 
   25.300791    29.703261    15.399587    14.681604 
   91.388935    29.699351    15.416593    14.663225 
    153.7531    29.699096    15.429848    14.639532 
  -8.4083377    29.704992    15.436846    14.610246 
   23.667205    29.710551    15.443355    14.576955 
    11.85035    29.717057    15.449968    14.542234 
  -76.953153    29.724037     15.45553    14.506223 
  -177.18569    29.727938    15.459679    14.467919 
  -152.92255    29.724753    15.461059    14.430779 
  -78.471172     29.71545     15.45975    14.395482 
  -159.75756    29.703009    15.457375    14.361205 
  -31.918382    29.684177    15.453656    14.330503 
   200.27038    29.664069    15.450764    14.304682 
   265.09039    29.651971    15.448493    14.283632 
   230.40116    29.650477    15.442989    14.262421 
   120.73615    29.658199    15.433436    14.235851 
  -46.202848    29.670751    15.418207    14.207571 
  -75.796235    29.681454    15.401874      14.1809 
  -213.97191    29.689125    15.385704    14.153595 
  -90.472681    29.688238    15.368972    14.126852 
  -30.316385    29.683732    15.352232    14.100345 
   7.4000074    29.678013    15.336167     14.07297 
  -12.033097     29.67259    15.319344    14.045108 
   147.56849    29.666686    15.303362    14.018048 
   75.744757    29.666684    15.288642    13.991278 
    26.79717    29.669713    15.272969    13.964555 
  -18.693416    29.673813    15.257707    13.934872 
  -1.2279435    29.677165    15.242505    13.904786 
   69.955751    29.680469    15.228532    13.873373 
   76.480208     29.68657    15.211307    13.844361 
  -65.733045    29.695731    15.192466    13.817529 
  -57.819359    29.702262    15.170889    13.790675 
  -101.57386    29.706481    15.151535    13.762575 
  -119.13123    29.706637    15.133996     13.73425 
  -78.372209    29.702027    15.117635    13.708313 
   -69.40539    29.694283    15.104512    13.682492 
  -30.265673    29.683762    15.094717    13.657078 
   5.7044616    29.672031    15.085192    13.634078 
    33.95854    29.660528     15.07344    13.613468 
   32.087589    29.650383    15.057078    13.594098 
   42.397949    29.641522    15.037819      13.5834 
   69.856667    29.634356    15.017747    13.580005 
  -51.001898    29.629985    14.998347    13.576769 
  -97.062637    29.623574    14.977627    13.571937 
  -43.606604    29.613281    14.961435    13.565986 
  -51.582341    29.601243     14.94952    13.557844 
   10.673097    29.587142     14.94034    13.549524 
  -3.8606067    29.573467    14.932357    13.537669 
   35.459582    29.559639    14.925285    13.523205 
   111.16888    29.547228    14.918638    13.506224 
   206.30811    29.539265    14.912963    13.486142 
   161.61113    29.539554     14.90896     13.46286 
   698.27255    29.546307    14.904318    13.438866 
  -134.64781    29.580991    14.899281    13.421816 
  -102.85511    29.610289    14.891278     13.41296 
  -107.42764    29.635473    14.881648    13.408698 
  -108.66336     29.65636    14.872442    13.403934 
   -78.44843      29.6729     14.86411    13.395374 
   2.2164585    29.686303    14.855612    13.384269 
    121.0418    29.699794    14.847026    13.371999 
   183.20781    29.718127    14.839619    13.360067 
   145.22846    29.743788    14.833261    13.350234 
  -47.812868    29.775258    14.825925    13.340461 
  -85.369147    29.804816    14.820009    13.328254 
  -77.933095    29.830958    14.816064    13.313782 
  -469.90627    29.853984    14.815279    13.299033 
  -279.14775    29.858213    14.820106    13.289232 
   10.690724    29.851277    14.830452    13.279877 
   42.381592    29.844768    14.840693    13.267591 
   60.229702    29.839954    14.848137    13.255891 
   21.293062     29.83755    14.851668    13.249178 
   94.963504    29.835997    14.854318    13.250872 
  -32.914108    29.838243    14.856748    13.255951 
  -146.99768    29.839172    14.859526    13.264851 
  -116.12768    29.834221    14.863642    13.276277 
  -78.741347    29.824626    14.868076    13.286194 
  -47.171612     29.81188    14.873255     13.29654 
  -42.689978    29.797248    14.879643    13.304211 
   25.907545    29.780908    14.887093    13.310707 
   38.424741    29.765604    14.894376     13.31705 
    233.7922    29.751838    14.901692     13.32345 
     207.061    29.747423    14.907755    13.327397 
   102.55442     29.75129    14.913979    13.332437 
  -95.281192     29.75926    14.921838    13.337798 
  -214.21099    29.763418    14.929787    13.343133 
   -270.1884    29.759008    14.938985    13.350669 
  -146.94874    29.743791    14.950378    13.361563 
   -8.210486    29.722695    14.961689     13.37551 
   100.96972    29.701271    14.972564    13.388833 
   89.878186    29.683886    14.982308    13.401943 
   112.47794    29.670096    14.991237    13.413434 
   124.00666    29.660805     14.99825    13.424182 
   66.067009    29.656475    15.004344    13.435621 
  -8.6972632    29.654787    15.009749    13.449532 
   23.566152    29.652751    15.012829    13.467259 
  -69.409997    29.651658    15.012467    13.486509 
   75.372888    29.647788    15.011478    13.506889 
   514.50427    29.646934    15.009139    13.525938 
  -17.408445    29.666659    15.007898    13.543391 
  -83.165926    29.685688    15.005505    13.558659 
    103.9419    29.701391    15.003309    13.570924 
   36.400537    29.721251    14.999378    13.580289 
   -24.83684    29.742567    14.997165    13.587863 
  -165.72506     29.76289    14.997725    13.596898 
  -79.791253    29.776584    15.002391    13.610836 
  -119.16163    29.787086    15.009295    13.627323 
  -128.87317    29.792822    15.016732    13.644229 
  -34.024803    29.793402    15.023734    13.659676 
  -58.879177    29.792622    15.031587    13.673753 
   36.218423    29.789487    15.036704    13.684132 
   120.57851      29.7878    15.040162    13.693957 
   114.52372    29.790936     15.03994    13.700546 
   173.64365    29.798654    15.037172    13.706924 
   84.461953    29.813317    15.033302     13.71334 
   54.725683    29.831358     15.03202    13.721051 
  -58.807719    29.851589    15.029262    13.730039 
   -92.86516    29.869467    15.023634    13.735807 
  -92.832444    29.883631    15.018023    13.740096 
  -51.296082    29.894081    15.010283    13.741063 
  -32.261548     29.90248    15.001932    13.738641 
  -154.32562    29.909588    14.992925    13.736422 
  -112.84903    29.910523    14.982968    13.736124 
   85.397559    29.906944    14.976013    13.736338 
   98.929261    29.906781    14.969017     13.73689 
  -17.706328    29.910576    14.962132    13.738139 
   -134.4874    29.913662    14.955688    13.738935 
  -102.13245    29.911368    14.950116     13.73997 
   15.309455    29.904989     14.94307    13.739578 
  -24.348344    29.899223    14.934667    13.737406 
   67.188762    29.892482    14.923977    13.734527 
   134.32359     29.88843     14.91302    13.733187 
   840.19288     29.88975    14.900699    13.733935 
  -10.073818    29.924677     14.88678    13.734887 
  -331.36741    29.959202    14.875188    13.735236 
  -186.83004    29.980472    14.867743    13.738585 
  -553.81071    29.994269    14.859946    13.744223 
  -331.81727    29.985914    14.853634    13.752607 
  -7.0505406    29.964286    14.845141    13.762689 
   52.824355    29.942376    14.835149    13.771895 
   84.259004    29.922578    14.824661    13.780325 
   54.481239    29.906152    14.815199    13.786968 
    122.5965    29.891904    14.807859    13.792032 
   139.61287     29.88256    14.802743    13.797393 
   94.197074    29.878801    14.798026    13.801812 
   171.37746     29.87881    14.793043    13.803657 
    359.4168    29.885673    14.792257    13.804667 
   121.73472    29.906914    14.793776    13.806573 
   -296.4683    29.933024    14.796328    13.808698 
  -397.21203    29.947275    14.795523     13.81015 
  -150.82237    29.945637    14.793408    13.808077 
   16.853012    29.937967     14.79046    13.804659 
   100.24942    29.930971    14.786054    13.798878 
   143.76294    29.927985    14.785115    13.792086 
   185.06969    29.930749    14.785742    13.786576 
   118.38563    29.940916    14.788663    13.781739 
  -49.056781    29.955819    14.796206    13.776987 
  -95.644783    29.968759    14.803097     13.76827 
  -143.73795    29.977873    14.807498    13.759853 
  -150.31365    29.981238    14.810772    13.751289 
   5.5345082    29.978591    14.810737    13.741412 
   59.478443    29.976165    14.808971    13.728865 
  -11.388508    29.976118    14.804777     13.71762 
    129.3298    29.975615    14.801102    13.709686 
   201.36584    29.980285    14.799695     13.70865 
    23.68063    29.993011    14.798345    13.708261 
  -187.92646    30.006683    14.795473    13.709053 
  -140.74304    30.012839     14.79176    13.708376 
  -126.35538    30.013364    14.787898    13.705446 
  -91.580151    30.008836    14.782952    13.700787 
    9.013467    30.000644    14.777606    13.694288 
   99.265747    29.992813    14.771155    13.685874 
   37.014171    29.988952     14.77091    13.678803 
    94.34591    29.986572    14.775634    13.677287 
   200.37786    29.987966    14.783536    13.677688 
   93.353414    29.997375    14.789497    13.682078 
  -41.664198    30.010518    14.790495    13.690054 
  -157.42119    30.021994    14.787975    13.699668 
  -88.532566    30.027174    14.785277    13.708433 
  -22.571709    30.028812    14.781509    13.715731 
   17.641239    30.029548    14.779819    13.720229 
   226.62633    30.030989    14.779053    13.722692 
   226.82669    30.041495    14.782481    13.723103 
   -182.3436    30.061074    14.788988    13.723703 
  -909.84657     30.07336    14.798495    13.725859 
    55.25795    30.049252    14.807762    13.733892 
    137.7229    30.027353    14.811524    13.740409 
  -27.288326    30.010964    14.811828     13.74645 
  -100.98563    29.993484    14.811789    13.751451 
  -75.334762    29.971964    14.810906     13.75583 
   10.568259     29.94743    14.810149    13.756936 
    261.2903    29.923319    14.808776    13.755568 
   190.37791     29.90966    14.807478    13.752384 
   100.11911    29.903616    14.807417    13.750096 
   132.89263    29.901577    14.807183    13.750017 
  -50.956709    29.904853    14.805441    13.751554 
  -180.90254    29.906092     14.80405    13.752259 
   -167.5337    29.900094    14.800989    13.754341 
  -78.444376    29.887394    14.796608    13.755566 
   102.33259    29.871557      14.7919    13.754933 
   186.63774    29.859814    14.789814    13.752152 
   247.62732    29.855535    14.790503    13.748155 
   79.696808    29.861162    14.790017    13.745531 
   119.85284    29.869977    14.784722    13.746196 
  -17.210366    29.883586    14.775648    13.749317 
  -69.685813    29.896506      14.7651    13.750755 
  -153.93615    29.906639    14.753768    13.747871 
  -137.81244    29.910615    14.742249    13.743522 
  -3.7122392    29.909078    14.731613    13.741096 
   19.529082    29.907393    14.722286     13.73909 
   46.318265    29.906488    14.713595     13.73631 
   53.734388    29.907437    14.703824    13.738631 
   97.772112    29.910535    14.693069    13.743448 
    87.17367    29.917543    14.680221    13.746555 
   52.018096    29.928039    14.667947    13.745177 
  -46.118298    29.940615    14.656373      13.7427 
  -268.78612    29.951347    14.646689    13.735024 
  -113.75378    29.951327    14.641244     13.72583 
   41.475953    29.946757    14.637031    13.717642 
   132.31703    29.943847    14.636589    13.712456 
   199.44468    29.946228    14.638118    13.709069 
   173.75288    29.956588    14.638942    13.706758 
    122.7643    29.973898    14.637687    13.704099 
   93.327705    29.996118    14.636587      13.7004 
  -198.26789    30.022071     14.63407    13.697254 
  -852.96749    30.040094    14.630832    13.694279 
  -148.95558    30.023998    14.631206    13.690143 
  -128.22778    30.001944    14.631431    13.687558 
   45.521909     29.97476    14.633813    13.689165 
   64.847507    29.949398    14.639818    13.694611 
    124.0957    29.926629     14.64612    13.701447 
   47.319185    29.908824    14.651656    13.707467 
   67.272095    29.892912    14.654303    13.711712 
   11.598532    29.879691     14.65523    13.713942 
  -50.627866    29.866934    14.654596    13.714558 
  -5.4451023    29.852152    14.654175    13.713191 
  -68.539334    29.837152    14.653188    13.712154 
   114.11221     29.81941    14.650651    13.714923 
   178.98741    29.806233    14.645706    13.721283 
   86.082553    29.800215    14.641631    13.731206 
   52.751207    29.797641    14.635021     13.74142 
   29.319401    29.797176    14.627812    13.751076 
   29.245867    29.797885    14.620608    13.758684 
  -57.855043    29.799763    14.611919    13.762136 
  -107.57076    29.799327    14.602327    13.763138 
  -83.972493    29.794588    14.592718    13.765242 
   6.1845081    29.786491    14.585162    13.770029 
    106.3006     29.77864      14.5762    13.775962 
   108.61216    29.775042    14.566046    13.785233 
   72.040898    29.775788    14.553061    13.795524 
   56.221654    29.779416    14.538228     13.80591 
   26.646033    29.785293     14.52216    13.814806 
   69.156909    29.792236    14.506617    13.822825 
   33.457132    29.801944    14.493882    13.831185 
   1.8653254    29.812992    14.483554    13.836721 
  -78.576722    29.824113    14.476716    13.842141 
  -131.09701    29.832092    14.472553    13.848012 
   26.511151    29.834827     14.46962    13.854523 
   22.804485    29.838622    14.467849    13.861775 
   74.715686     29.84333    14.464935    13.870422 
  -25.867046    29.851026    14.463209     13.87736 
  -5.4847894    29.857687      14.4608    13.882325 
  -5.7923233    29.864129    14.461612    13.884225 
   18.522105    29.870339    14.465815    13.884135 
  -13.088909     29.87729    14.469883    13.884021 
  -74.151391    29.883718    14.471592    13.884561 
  -52.518468     29.88718    14.470783    13.887384 
   26.247539     29.88854    14.465844    13.891885 
   57.767879    29.890951    14.458804    13.894171 
  -4.9531162    29.895673    14.452307    13.895732 
   33.975669    29.900196    14.449615    13.895838 
   49.578854    29.906078    14.449273    13.893752 
   78.832009    29.913944    14.448952    13.888353 
   44.642054    29.924962    14.447553    13.881872 
  -114.98774    29.937767    14.445523    13.875813 
  -99.030082    29.945972    14.441327    13.870816 
  -51.052868    29.950216    14.434951    13.866787 
   -15.81814    29.952417    14.427787    13.865877 
   57.246177    29.953986     14.42134    13.863536 
   45.159519    29.957845    14.416515    13.859689 
   41.648588     29.96351    14.412417     13.85677 
    80.85731    29.970841    14.409703    13.855288 
   88.353458    29.981406    14.411139    13.854379 
   -126.5892    29.995506    14.413836    13.855962 
  -673.62324    30.004542    14.415036    13.857385 
  -119.42186    29.986633    14.414418    13.855732 
   26.208022    29.963947    14.413422    13.854177 
   46.504527     29.94231    14.408558    13.854062 
    87.34399    29.922532    14.402453    13.853573 
   45.531408    29.906249    14.397182    13.850931 
   132.25124    29.891786    14.393326    13.846184 
   26.241251    29.882614    14.392649    13.840987 
   36.771444    29.874491    14.395173    13.836585 
  -40.596983    29.867839    14.398155    13.834534 
   14.274122    29.859564    14.401927    13.835613 
  -89.772304    29.851859    14.404289    13.840112 
  -1.5581563    29.840564    14.405663    13.844926 
   49.315189    29.829206    14.407197    13.848714 
   98.837635     29.81982    14.408721    13.852183 
   20.838662    29.814388    14.410074    13.854099 
   11.678063     29.80979    14.409319     13.85505 
   25.473069    29.805659    14.410632    13.851868 
   31.826644    29.802547    14.412469    13.847748 
   -32.37531    29.800708    14.412923    13.841395 
   99.893005    29.797574    14.412966     13.83444 
   15.562653    29.798435    14.412355    13.828139 
   11.450331    29.799919    14.408212    13.825311 
   3.0409543    29.801861    14.405014    13.822227 
   82.787411    29.803925    14.400135    13.819379 
   90.516897      29.8093    14.396022    13.815183 
   138.75273    29.818296     14.39226    13.810519 
   99.489814    29.832842    14.390183    13.804492 
  -4.6104784    29.851368     14.38959    13.796413 
  -38.017043    29.869709    14.390569    13.785888 
  -19.766416    29.886529    14.390707     13.77452 
  -399.00306    29.902559    14.387785    13.764372 
   -484.9052    29.902629    14.382224    13.756827 
 -0.74198793    29.883302    14.373904    13.750792 
   152.50537    29.863946    14.365705    13.744688 
   184.59257     29.85069    14.359319    13.738995 
   112.75715    29.844818    14.354899    13.732411 
   122.71844    29.843456    14.352914    13.723912 
  -32.672142    29.847003    14.352369     13.71304 
  -41.769037    29.849243    14.349435    13.699238 
  -80.305341    29.849812    14.343755    13.683128 
  -47.369495    29.847169    14.336959    13.666253 
   -16.65254    29.842631    14.324637    13.651524 
   144.85134    29.837427    14.309892    13.639454 
   128.28776    29.838017    14.293862    13.628498 
   158.30655    29.843738    14.278165    13.616929 
   97.500405    29.855792    14.264627    13.607219 
   115.18561    29.871746    14.255436    13.599197 
   90.060816    29.892307     14.24997    13.590967 
  -105.33059    29.916471    14.245526    13.581135 
  -649.39985    29.936422     14.24357     13.57178 
  -166.00652    29.930396    14.244744    13.560614 
  -53.276241     29.91773    14.245502    13.546774 
   52.915425    29.902933    14.246844    13.533622 
    161.8142    29.890253    14.246571     13.52372 
   145.42594    29.884046    14.242527    13.519069 
   84.080795    29.883655    14.237131     13.51975 
   55.954857    29.886628    14.231076    13.521587 
  -56.509969    29.891839     14.22422    13.524211 
  -46.009354    29.894789    14.217084    13.523133 
  -85.536375    29.895899    14.210149    13.518239 
  -84.362111    29.893588    14.204549     13.51013 
   68.309194    29.887902    14.200114    13.500872 
   155.79099    29.884948     14.19293    13.490711 
   115.53332    29.888226     14.19005     13.48557 
   53.638165    29.896126    14.189481    13.489103 
  -427.76379    29.906171    14.194479    13.497324 
  -165.97912    29.899105    14.201277    13.506322 
    -52.5232    29.885401    14.208281    13.514544 
   66.663984    29.869595    14.213433    13.517348 
  -5.7324843    29.856456    14.217895    13.517731 
   99.028014    29.843087    14.221128    13.516143 
   195.34304     29.83368    14.222827    13.511617 
   192.29237    29.832087    14.223468    13.504169 
   105.95628    29.838185    14.224953    13.496407 
   87.154478    29.848521    14.225296    13.489989 
  -144.08351    29.862344    14.222578    13.485111 
  -164.98504    29.870403    14.221225    13.482719 
  -171.75249    29.871863    14.220443     13.48318 
  -292.50081    29.866453    14.220797    13.488015 
   47.967145    29.849342    14.222199    13.490667 
     132.219    29.834151    14.222916    13.494929 
   171.72808    29.824248    14.224771    13.498412 
   169.10257    29.821214    14.225124    13.501804 
   133.57192    29.824944    14.227649    13.503392 
   97.801713    29.834018    14.228313    13.507633 
   70.880718    29.847003    14.228203    13.513832 
  -121.47365    29.862824    14.227849    13.521347 
  -61.937815    29.873785    14.228321    13.528215 
   0.4484497    29.882269    14.228032    13.532663 
  -78.411538    29.890771    14.226447     13.53591 
   -214.8426    29.896137    14.225058    13.542266 
  -44.330105    29.892909    14.225122    13.550841 
   94.888167    29.887907    14.226293    13.560902 
   64.343453    29.886702    14.227829    13.569423 
   49.662985    29.888069    14.226639    13.577207 
   11.622699    29.891424    14.222754    13.586348 
  -43.271927    29.895243    14.220907    13.597386 
  -96.995327    29.897332    14.215922     13.60777 
  -11.298905     29.89554    14.210051    13.615715 
   9.6931728    29.893297    14.203102    13.621434 
   145.87308    29.891442    14.197934    13.624747 
  -17.104775    29.895421    14.194964    13.626786 
  -185.64394    29.898716    14.193243    13.629276 
  -3.6832934    29.894585     14.19306    13.629476 
   141.51621    29.890308    14.196185    13.628293 
  -18.588679     29.89169    14.199718    13.625246 
   -70.03181    29.892329    14.201424    13.621723 
   -29.91717    29.890167    14.200807    13.618838 
   40.478953    29.886809    14.196163     13.61664 
   72.245191    29.885069    14.189798    13.614498 
   101.73371    29.886219    14.182706     13.61318 
  -62.607332    29.891439    14.174637    13.612134 
   -42.17119    29.894154    14.168389    13.611271 
  -229.65374    29.895182    14.160883    13.610263 
  -118.22114    29.887024    14.153833    13.610276 
   45.909935    29.874138    14.146148     13.60903 
  -40.289201    29.863088    14.137989    13.606835 
  -57.142242    29.850426     14.12795    13.603589 
   73.772275    29.835478    14.116922    13.601842 
   72.288407    29.823482    14.105815     13.60209 
   69.771644    29.814377    14.094466    13.607736 
   42.575319    29.808063    14.084792    13.618309 
   6.6834492    29.803451    14.076155    13.633638 
  -70.642684    29.799108    14.071232     13.65047 
  -59.701143    29.791938    14.069803    13.664497 
   45.782124    29.782381    14.069316    13.676017 
   50.144147    29.774654    14.068395    13.683916 
   60.609212    29.768934    14.068541    13.689113 
   203.62453    29.765638    14.067808    13.695931 
   173.32111    29.770486    14.060614    13.710109 
   32.138733    29.782268    14.049422    13.732161 
  -43.020548    29.795335    14.038043    13.755045 
  -119.06911    29.806682    14.030122    13.778616 
  -185.68259    29.813265    14.024185    13.798235 
  -72.436857    29.812422    14.018706    13.812806 
   39.076512     29.80868    14.014036    13.823118 
   124.04631    29.806502    14.011524    13.831208 
    7.977226    29.809286    14.009806    13.835036 
    34.10257    29.812389     14.00936    13.836672 
   17.201666    29.816856    14.008706     13.84036 
  -9.8913155    29.822011    14.005476    13.846594 
  -49.321851     29.82677    13.998781    13.853894 
  -191.45073    29.829557    13.994398     13.86215 
  -135.25225    29.824685    13.991375    13.867985 
   28.843175    29.814404    13.989663     13.86976 
   3.3711621    29.805276    13.990315    13.868368 
   97.143958    29.796283    13.990796    13.864714 
   127.92775    29.791175    13.993026    13.860888 
   130.37903    29.791185    13.994256    13.858164 
   142.90741     29.79641    13.996015    13.858651 
    26.83431    29.807352    13.999011    13.861936 
  -34.354277    29.819366    13.999421    13.867859 
   -184.9824    29.830007     14.00204     13.87243 
  -134.37613    29.833248    14.005611    13.874933 
   12.736109    29.831114     14.01063    13.876359 
  -83.986184     29.82949    14.016812    13.875873 
  -17.383982    29.824506     14.02375    13.873136 
   99.163701    29.818826    14.033349    13.869881 
   126.78731    29.817114    14.041555    13.866209 
   74.825694    29.820473    14.049393    13.865855 
   51.934101    29.826824    14.055656    13.869409 
  -27.279388    29.835254    14.061025    13.874768 
  -242.19497    29.842592    14.065777    13.881275 
   -170.3748    29.840242    14.070607    13.884403 
  -90.110048    29.831077    14.075456    13.885967 
  -39.012583    29.818308    14.081503    13.884961 
    23.64782    29.803978    14.087168    13.882979 
   92.029458    29.790595    14.090687     13.88033 
   168.40871    29.780892    14.091798    13.878923 
   118.58729    29.777926    14.089977    13.878802 
   88.601838    29.779703    14.086879    13.878792 
    46.15772    29.785024     14.08238    13.878694 
   -119.7135    29.792192    14.078934    13.878086 
  -166.74311    29.794571    14.079387    13.873011 
   -72.14475     29.79028    14.082312    13.867829 
   36.664876    29.783104    14.087698    13.860537 
  -36.281797    29.777394    14.094857    13.851458 
   34.158798    29.770233    14.100781    13.843265 
   54.681478    29.764438    14.102883    13.837997 
   110.86209    29.760831    14.101838     13.83523 
   4.8965486    29.761658    14.102492    13.834499 
   67.061133    29.762681    14.103528    13.831547 
  -88.731149    29.766386    14.103153    13.825003 
  -63.236347    29.766542    14.101182    13.814452 
   56.727064    29.764169    14.097132    13.801359 
  -49.035098    29.764065    14.091651     13.78733 
  -36.674976    29.761999    14.084655    13.778898 
  -36.022189    29.758466    14.076302    13.779591 
  -36.501171    29.753493    14.067581    13.785752 
   28.231749    29.747059    14.062611    13.795297 
   103.77564    29.741755    14.061329    13.804576 
   44.495976    29.740601    14.063817    13.811455 
    27.05702    29.741228    14.067805    13.817539 
  -54.260536    29.742937    14.074164    13.821785 
  -13.862763    29.742475    14.080315    13.826487 
  -15.598317    29.741459    14.084225    13.837151 
  -107.13364    29.739819    14.080161    13.852505 
   33.359943    29.733893    14.068676    13.875024 
 -0.44623624    29.729302    14.055704    13.898151 
   136.29991    29.724693    14.042432    13.919468 
    167.7163    29.725536    14.029964    13.936443 
   95.396046    29.733088    14.018303    13.949911 
  -73.130816    29.744456    14.009322    13.958783 
  -117.76797    29.752898    14.000703    13.963088 
  -63.801588     29.75663    13.993205    13.961995 
  -89.377682    29.757809    13.982362    13.961885 
  -25.004741    29.755414    13.965662    13.963706 
   68.731274    29.752018    13.948611    13.968641 
   132.51654    29.751372    13.932234    13.976006 
   127.22251    29.756026    13.918037    13.982456 
   87.062592    29.765769    13.907067    13.984327 
   1.1162881    29.778995    13.897429    13.979607 
  -146.64608    29.792265    13.888888    13.970911 
   -208.9695    29.799669    13.883407    13.961107 
  -191.31978    29.798715    13.878493    13.955808 
  -159.30518    29.790108    13.876804    13.955542 
    76.08253    29.775129    13.876579    13.960553 
   172.20603    29.763192    13.881938     13.96812 
    253.5551    29.758145    13.888759    13.979023 
   177.64081    29.763239    13.898072     13.98607 
   134.09145    29.775439     13.90581    13.988889 
  -68.692552    29.793003    13.915594      13.9843 
  -172.22351    29.807819    13.925757    13.975474 
  -365.96075    29.815746    13.938761     13.96327 
  -307.50486    29.809034    13.953259    13.952173 
   37.788511    29.790023    13.965768    13.948586 
   120.27587    29.772523    13.976131    13.951081 
   230.21756    29.759834    13.982939    13.955665 
    295.2393    29.756353    13.988607    13.959801 
   275.54987    29.764683    13.995713    13.960284 
   93.746168    29.784034    14.005837    13.958075 
  -79.143121    29.807135    14.017662    13.952933 
  -282.43646     29.82707    14.033097    13.944356 
   -390.3352    29.835708    14.048455    13.933931 
  -147.45335    29.828733    14.061595    13.924641 
   40.064946    29.815859     14.07305    13.919375 
   95.546517    29.804588    14.082428    13.919047 
    184.7142    29.797139    14.089794     13.91928 
   276.62933    29.797078    14.094881    13.919317 
   188.18442    29.808083    14.098938    13.915167 
  -19.894673    29.826615    14.104881    13.907368 
  -181.37923    29.844351    14.111919    13.894802 
  -411.68599    29.854832    14.122017    13.879864 
  -315.46771    29.848846     14.13109    13.863827 
  -125.99663    29.830241     14.14314    13.847171 
  -3.1079006    29.806596    14.153461    13.830657 
   164.47998    29.782826    14.158616    13.819143 
   207.71808    29.765636    14.161634     13.81146 
   255.42203    29.756755    14.162034    13.804269 
   192.11483     29.75809     14.16121     13.79491 
   55.444766     29.76711    14.160426    13.786162 
  -141.30942    29.778348    14.159892    13.779051 
  -173.87517    29.783934    14.161556     13.77302 
  -209.41048    29.782564    14.162757    13.768836 
  -160.61229    29.772818    14.164354    13.764072 
   42.444608    29.756648     14.16539    13.757896 
   143.45646    29.742175    14.163372     13.74934 
   225.72033    29.733441    14.155638    13.743293 
   217.40982    29.733735    14.145693    13.739022 
    254.5879    29.742726    14.134385     13.73662 
  -65.905386      29.7619    14.123694    13.732935 
  -201.28848    29.778438    14.116408    13.728718 
  -229.39598    29.786925    14.112414    13.723803 
  -194.06603    29.786236    14.108593    13.718328 
  -121.58691    29.777784    14.107585    13.712635 
   71.542727    29.764468    14.108276    13.706282 
   105.69224    29.754015    14.108941    13.704661 
   190.75833    29.747789    14.107531     13.70743 
   173.39603    29.749193    14.106776    13.713044 
   60.181969    29.757533    14.105904    13.718921 
  -47.051635    29.768281     14.11078    13.724985 
  -186.15797    29.777146    14.119057    13.730626 
  -158.00352    29.778565    14.129814    13.736171 
  -144.09357    29.773664    14.140706     13.74084 
  -33.585246    29.762999    14.151014     13.74626 
   138.57335    29.750991    14.155481    13.752254 
   152.87639    29.744526    14.152719    13.758114 
   139.98388    29.744176    14.146174    13.765711 
   137.08904    29.749425    14.141767    13.772706 
  -17.482147    29.760157    14.139637    13.782877 
  -93.291581    29.770191    14.140862    13.792934 
  -149.55859    29.776493    14.144277    13.804471 
  -104.98126    29.776812    14.148734    13.812017 
   -148.9788    29.772932    14.154242    13.818592 
  -64.481237    29.763093    14.154392    13.824736 
   128.13817    29.750675    14.150135    13.830183 
   239.77993    29.743382    14.142025    13.835952 
   160.89715    29.745681    14.132153    13.841011 
   130.52428    29.754415    14.119798    13.845801 
  -2.3837217     29.76837     14.11055    13.853633 
  -97.470685     29.78223    14.102993    13.859432 
  -213.03071    29.792191    14.095817    13.862586 
  -239.32185    29.793631    14.087315    13.863474 
   -163.7579    29.785498    14.078121    13.860635 
    65.74239    29.770815    14.065516    13.857804 
   185.30121    29.758762     14.05194    13.859407 
   174.73793     29.75412    14.038886    13.867061 
   102.36514    29.756468    14.029029    13.874971 
   103.05803    29.762911    14.020574    13.880954 
  -41.044841    29.773476    14.016454    13.886821 
  -146.08727    29.782399    14.014356    13.887332 
  -257.61473    29.785478    14.015252    13.884515 
  -164.68297    29.778253    14.017737    13.877483 
   48.773734    29.764441    14.020674    13.868572 
   140.89956     29.75258    14.021143    13.860698 
     153.511    29.746355    14.018934    13.853729 
   227.73838     29.74627    14.016191    13.848724 
    158.7865    29.755294    14.015007    13.847559 
   26.468155     29.77067    14.013995    13.842861 
  -73.042733    29.787105    14.011606    13.832738 
   -234.9435    29.800618    14.009424    13.820583 
  -301.82033    29.804734    14.006272    13.802773 
   -55.28381    29.796776    14.003061    13.783102 
    72.35767    29.786607    13.998391    13.759571 
   128.32642    29.779333    13.993286    13.740491 
   131.67205    29.777192    13.986159    13.727573 
   132.48807    29.780317    13.977035    13.718555 
   39.355325    29.788742    13.968129    13.712078 
  -28.744832    29.798741    13.959384    13.700769 
  -195.81115    29.807591    13.949865    13.685871 
  -218.97329    29.808608     13.94238    13.670901 
  -174.99892    29.800866    13.934344    13.655281 
   -2.955771    29.786124    13.929036    13.642039 
   97.494193    29.771263    13.925912     13.63309 
   209.61246    29.760303    13.926481    13.630274 
   176.71378    29.757727    13.925967    13.628365 
   66.452817     29.76222    13.927371    13.625961 
  -50.250047    29.769371    13.929922    13.624778 
  -60.910249    29.774511    13.934266    13.621263 
  -113.75537    29.777216    13.937958    13.615798 
  -196.22961     29.77537    13.942521    13.609866 
  -50.769776    29.765675    13.947139    13.602358 
   160.09901    29.753949    13.949676    13.596987 
   164.49865    29.748627    13.950607    13.591538 
   72.011417    29.749885    13.952331    13.586872 
   88.960609    29.754024    13.955749    13.583245 
   11.517329    29.761721    13.960659    13.580096 
  -29.518078    29.769878    13.965341    13.575714 
  -127.61971    29.776855    13.971876    13.572908 
  -171.91274    29.778727    13.980096    13.566616 
  -58.337564    29.773723    13.990567    13.560829 
   120.21094    29.766385    13.999469    13.556552 
   222.79779    29.763856    14.006699    13.555851 
   152.68848    29.770238    14.012031    13.559331 
   39.243671    29.782728    14.018055    13.563204 
   1.9654083    29.796788    14.022263    13.569481 
  -91.470022    29.810926    14.025348    13.573695 
  -278.20107    29.821406     14.02823    13.578701 
  -245.32447    29.820757    14.031209    13.583001 
  -32.636817    29.810296    14.034859     13.58677 
-0.065397837    29.798529    14.038049     13.58917 
     157.487    29.786759    14.044156    13.590055 
   66.493906    29.781289     14.05122    13.590558 
   28.493829    29.778479    14.058491     13.59122 
  -70.142616    29.776808    14.063917    13.591147 
  -135.94464    29.772332    14.067941    13.588815 
  -35.429004    29.762418    14.073073    13.583309 
  -8.8012996    29.751087    14.079903    13.577316 
  -5.5089611    29.739404    14.086401    13.570434 
   71.014624      29.7275    14.090229     13.56486 
   128.75997    29.718437    14.093236    13.558266 
   187.73593    29.714524    14.096198    13.548819 
   61.398964    29.718121     14.10125    13.537424 
  -17.733492    29.724174    14.107317    13.524488 
  -68.182245    29.729517    14.115377    13.508219 
  -63.574434    29.732134    14.123009    13.492164 
  -123.32907    29.732207    14.129932    13.478012 
   -122.3195    29.727347    14.135121    13.467129 
   76.708618    29.717594    14.135833    13.461685 
   120.59852     29.71091    14.135553     13.45769 
   176.94301    29.709049    14.135172    13.454679 
    201.7433    29.714266    14.135289    13.452462 
   28.600147    29.727553    14.136761    13.449775 
  -29.768889    29.741984    14.139591    13.444969 
  -135.57582    29.755224    14.142208    13.439127 
  -121.79484    29.763042    14.148175    13.434206 
  -145.57186    29.765987    14.156152    13.432149 
  -29.570175    29.763109    14.166598    13.429185 
   5.6391924    29.759049    14.177338    13.426668 
   15.890054    29.755214    14.186804    13.426353 
   70.747383    29.752015    14.195131    13.429592 
   47.089583    29.751646    14.203506    13.433047 
    46.47476     29.75316    14.212897    13.434399 
  -13.709962    29.756534    14.223479     13.43421 
  -141.05289    29.759359    14.235291      13.4341 
  -133.14493    29.756542    14.246887     13.43504 
  -73.249639    29.748399    14.256777    13.434739 
   78.794491    29.737326    14.264899    13.434337 
   117.82543    29.729404    14.269992    13.432774 
   105.16756    29.726196    14.271303     13.43254 
   109.10669    29.727195    14.269588    13.430561 
   135.33323    29.732558    14.266845    13.425802 
 -0.26820687    29.743334    14.264029    13.419368 
  -28.485874    29.754099    14.263793    13.409149 
  -133.80004    29.763725     14.26291    13.396764 
  -89.734014    29.767999    14.261513    13.385276 
  -131.56478    29.768684    14.260972    13.374724 
  -47.031498    29.764106    14.260113    13.367536 
   7.3557002    29.757646    14.256924    13.361894 
   126.95634    29.751481    14.254263    13.361016 
   91.130952    29.750395    14.250434    13.362628 
   97.741763    29.752953    14.247341    13.361703 
   52.200681    29.759421    14.245595    13.357394 
   -48.35256    29.767978    14.243466    13.348185 
  -110.03122      29.7746    14.243119    13.336407 
  -123.63725     29.77682    14.243654    13.325722 
  -116.55105    29.774096    14.247291    13.316839 
   12.969648    29.766709    14.250902    13.311178 
     85.5317    29.759841    14.255884    13.309056 
   178.27234    29.756395    14.260699    13.308751 
   148.13104    29.760079    14.265805    13.308891 
   71.774962    29.769688    14.271651    13.309185 
  -23.948834    29.782169    14.280051    13.308046 
  -149.55223    29.793691    14.288833    13.302612 
  -151.14745    29.799232    14.302602    13.296473 
  -55.210588    29.798726    14.317157    13.293594 
   -11.94074    29.796012    14.331356    13.295474 
   59.051256    29.792821    14.340938    13.300851 
   130.24881    29.791991    14.346685    13.308795 
   137.13483    29.796372    14.349258    13.318125 
   116.67035    29.806238    14.350015    13.324676 
   80.730573     29.82077     14.35131    13.327218 
  -40.053349    29.838532    14.351694    13.328424 
  -279.15578    29.854692    14.353556    13.329793 
  -209.68178    29.859686    14.355388    13.332525 
  -168.83729    29.856292    14.358184    13.335555 
  -63.471371    29.846145    14.361521    13.339297 
   34.730686    29.833459    14.363835    13.344119 
   130.62688    29.822162    14.360549    13.348783 
   157.19826     29.81609    14.355181    13.350392 
   159.55067    29.816306    14.349654     13.34594 
   7.9490339    29.822905    14.346538    13.339188 
  -141.29507    29.829821    14.346538    13.330683 
  -198.08958    29.831085    14.348556    13.323697 
  -195.94395    29.824426    14.353008     13.31997 
  -75.538296    29.809929    14.358658    13.317087 
   -13.88396     29.79241    14.364372    13.314898 
   104.86321    29.774336    14.367365    13.312352 
   260.52183    29.760457    14.366835    13.307335 
   317.23483    29.756999     14.36241    13.301217 
   148.04871     29.76623    14.358708    13.296299 
  -50.771601    29.781382    14.355541     13.29195 
   -152.9972    29.794504    14.352477    13.292257 
  -214.31207    29.801507    14.350094    13.294365 
  -137.04608    29.799936    14.347796    13.297296 
  -39.089088    29.792884    14.346049    13.299116 
     40.5984    29.784268    14.342891    13.300042 
   108.41917    29.777276    14.338373    13.299392 
   129.90972    29.774621    14.330603     13.30124 
   155.13546    29.777163    14.321529    13.306274 
   124.30565    29.785909    14.313297    13.312697 
  -97.879245    29.799628    14.305683    13.319954 
  -173.28471    29.809432    14.298995    13.327884 
  -223.83664    29.812304    14.291343    13.336606 
  -133.77381    29.806223    14.284068    13.346997 
   -24.44051    29.794791    14.277902    13.355626 
   50.221921    29.782382    14.270436    13.362717 
   95.442276    29.771981    14.261604    13.369597 
   187.32676    29.765398    14.251506    13.376294 
   135.33758    29.766308    14.239499    13.381804 
   43.271353    29.772631    14.231184    13.388014 
  -35.117246    29.780686    14.225332    13.396409 
  -85.843041    29.787336    14.218984    13.403212 
  -120.62211    29.790551      14.2118    13.408505 
  -181.67003    29.788943    14.204991    13.415762 
   -53.57802    29.780067    14.198092    13.422052 
   60.816065    29.769048    14.191506    13.427109 
    183.4985    29.760462    14.185478    13.428973 
   211.26888    29.759215    14.180515    13.430096 
    248.6344     29.76642    14.177016    13.429916 
  -47.536301     29.78357    14.176577    13.425117 
  -158.01616    29.798818    14.177831    13.420195 
  -233.34815    29.807746    14.179464    13.415776 
  -186.36676     29.80734    14.177918     13.41004 
  -64.200784    29.799479     14.17166    13.403831 
   9.8651637     29.78905    14.162035    13.399051 
   128.22177    29.779016    14.151557    13.395396 
   188.27915     29.77411    14.141854    13.392975 
   208.02278    29.776736    14.131374    13.389063 
   89.173779    29.787683    14.123179    13.384543 
  -92.420415    29.802197    14.115628    13.380576 
   -123.5517    29.813013    14.108729    13.378044 
   -193.2971    29.818888    14.100878    13.375392 
   -185.1175    29.817031    14.091486    13.373989 
  -132.10094    29.807769    14.083981    13.373529 
   18.625243    29.793223    14.077447    13.377816 
    135.9176    29.779422     14.07484    13.384961 
   175.54054    29.771058    14.073498    13.391322 
   206.10665    29.769716    14.072983    13.393696 
   88.612358    29.776617    14.071893    13.394552 
  -45.822872    29.787064    14.070882    13.395601 
  -153.29472    29.795677    14.068387    13.397113 
  -105.76201    29.798159    14.064566    13.396763 
  -165.83762     29.79641    14.060202    13.398353 
  -34.685137    29.788027     14.05559    13.400961 
  -1.6909012    29.778257    14.050439    13.404843 
   91.433293     29.76842    14.047805     13.40762 
    143.4166     29.76224    14.048477    13.410451 
    106.7382    29.761796    14.053728    13.412309 
   51.462006    29.765622    14.058082    13.411177 
  -20.551061    29.771507    14.060873    13.410793 
  -51.936912    29.776569    14.060195    13.412107 
  -25.561456    29.779554    14.057889    13.414715 
    11.92309    29.781517    14.054667    13.414791 
   85.416009    29.783956    14.051243    13.412162 
   60.573788    29.789812    14.051592    13.410965 
   4.4299831    29.798091    14.055409    13.411339 
   17.310493    29.806547    14.060707    13.412594 
  -82.026699    29.815696    14.066582    13.418079 
   -92.61625    29.821564     14.07167    13.426803 
  -90.988267    29.823727    14.077397    13.439068 
   12.978344     29.82225     14.08195    13.451838 
   22.899367    29.821292    14.087323    13.463208 
  -35.043741    29.821251    14.093959    13.472743 
  -46.558139    29.819808    14.100767    13.480616 
  -76.859658    29.816502    14.107861    13.486102 
  -30.783457    29.810122    14.115443    13.491471 
  -3.7790072    29.802511    14.122112    13.498208 
   88.836755    29.794749    14.124063    13.505392 
    71.26187     29.79054    14.119073     13.51573 
  -26.100887    29.789181    14.112062    13.529311 
   63.362031    29.786779    14.104206    13.541901 
  -64.964626    29.786911    14.096765      13.5521 
  -6.8297108    29.784444    14.091263    13.557098 
   -11.65905    29.781704    14.088807    13.561309 
   52.899829    29.778498    14.087768    13.564463 
   11.557143    29.777408      14.0857     13.56491 
   74.437029     29.77678    14.086061     13.56529 
   80.849025    29.779129    14.088994    13.566402 
  -14.129122    29.784713    14.090479    13.569525 
   15.535348    29.789731    14.092006    13.573763 
  -9.0629303    29.795371    14.092158    13.576898 
  -70.948427    29.800648    14.091337    13.576478 
  -72.550566    29.803088    14.091557     13.57458 
  -15.693837    29.802625    14.092575     13.57194 
  -34.068763    29.801534    14.096637    13.569217 
   104.78982    29.799081    14.106526    13.566644 
 -0.35409686     29.80082    14.119884     13.56482 
  -37.507366    29.802544    14.136303    13.561246 
  -112.09831    29.802768    14.149946    13.557663 
  -137.06816    29.798508    14.155821    13.555556 
  -43.988276    29.788765    14.157425    13.554971 
    62.33717    29.777263    14.156946    13.553313 
    40.80813    29.768254    14.158045    13.547456 
   87.935492    29.760878    14.161071    13.543544 
   83.245164    29.757019    14.166716    13.541705 
   129.45621    29.756489    14.173833    13.540998 
   7.8642085    29.761138    14.182138     13.53894 
   5.9922674    29.766102     14.18724    13.538798 
   -32.00354    29.771305    14.190886    13.541741 
  -44.205394    29.775229    14.191959    13.544674 
  -33.247949    29.777383    14.191249    13.546407 
  -16.393582    29.778208    14.190581    13.546059 
  -33.367381    29.778378    14.190198    13.544316 
   57.608176    29.777212    14.190869     13.54045 
   64.035856    29.778351    14.190821    13.536126 
   96.681156    29.782052    14.192476    13.533409 
  -23.670587    29.789619    14.195316    13.533413 
  -175.05007     29.79624     14.19657    13.536681 
     -120.08    29.795859    14.194092    13.542165 
  -13.088063    29.790674    14.189961    13.546722 
  -61.312797    29.784966    14.184673    13.547363 
   1.7619529    29.776806    14.181406    13.546161 
   83.625843    29.768716     14.17958    13.545147 
   155.59479    29.763971    14.178425    13.544202 
   100.87876     29.76545    14.179571    13.544665 
   36.872419    29.770964    14.179709    13.546986 
  -83.474496    29.777953    14.179864    13.552712 
  -38.269006    29.781602    14.177194    13.558747 
  -47.735287    29.783722    14.173091    13.564936 
   18.425419    29.783931    14.169349    13.569503 
  -4.4478163    29.784878    14.164973    13.571798 
   4.6692239    29.785647    14.160122    13.569058 
   103.54042    29.786602    14.156266    13.565481 
    131.3749      29.7917    14.155912    13.563571 
   60.361172    29.802052    14.154891    13.564232 
   -123.9609    29.814819     14.15301    13.568839 
  -135.40145    29.822627    14.152988    13.573575 
  -121.94145    29.825019    14.153933    13.577298 
 -0.21064657    29.822533    14.152696    13.579419 
  -67.065668    29.820039     14.15111    13.576831 
  -29.917044    29.814863    14.150819    13.571495 
    20.99413     29.80849    14.149116    13.564028 
  -25.681478    29.802956    14.147915    13.552538 
   123.87818    29.796396    14.144204      13.5409 
   159.24155     29.79479    14.138926    13.531991 
  -10.282885    29.799554    14.130677    13.526762 
  -184.38608    29.803907    14.124778    13.523361 
  -109.74123    29.800884     14.11824     13.51807 
   -46.04044    29.793472    14.112494    13.510569 
   12.528985    29.784218    14.108182    13.504152 
  -25.308915    29.775465    14.107606    13.497365 
   102.43287      29.7657    14.107317    13.490337 
   181.36986    29.760032    14.107795    13.485073 
   178.99799    29.761619      14.1096    13.482838 
   143.76509    29.770366    14.114622    13.486116 
  -109.07092    29.784863    14.120816    13.494405 
  -198.23529    29.794998    14.127673    13.505163 
  -129.57961    29.797203    14.129723    13.516072 
  -76.540566    29.794225    14.128759    13.526743 
  -21.147461    29.788186    14.127038    13.534811 
    75.42499      29.7813    14.123995    13.541033 
   62.361209    29.777432    14.121851    13.544199 
   84.196923    29.776058    14.119006    13.544941 
   112.71612    29.778051    14.115849    13.548115 
   95.004308    29.784554    14.109158     13.55523 
   9.1466865    29.794857    14.101807    13.562436 
  -120.95796    29.805525    14.098779    13.567403 
  -110.22624    29.811355    14.097141    13.565898 
  -90.858831    29.812777    14.097914    13.562969 
  -22.088272    29.810563    14.098432     13.55572 
  -23.256054    29.807467    14.098885    13.547365 
  -1.3863065     29.80344    14.098784    13.539264 
  -4.8587747    29.799357    14.101413     13.53224 
   45.549748     29.79508    14.102546    13.525238 
   63.228953    29.792626    14.100562    13.522993 
   23.252028      29.7927     14.09869    13.525405 
  -35.919678    29.793705    14.097093    13.529664 
  -111.30728    29.793272    14.097772    13.534637 
   -58.81618    29.788388    14.098899    13.536671 
   -3.172053     29.78115    14.099494    13.534094 
  -10.172146    29.773786    14.099076    13.530771 
  -34.354994    29.766015    14.098207    13.529059 
   89.629044     29.75687     14.09647     13.52998 
   73.133818     29.75131    14.097493    13.539426 
   202.03816    29.748675    14.094672    13.556229 
   82.861336    29.754122    14.093444     13.57373 
  -38.816916    29.762883    14.091097    13.589386 
  -77.178352    29.770092    14.086705    13.602592 
  -98.614929    29.774213    14.079975    13.612493 
  -100.20781     29.77439    14.073016     13.61944 
   -87.03422    29.770559    14.066702     13.62587 
   32.208605    29.763246     14.05804    13.634362 
  -17.221991    29.757221    14.049989    13.644487 
   43.849051    29.750508    14.040912    13.659487 
   150.30317    29.745549    14.032245    13.678176 
   86.321343    29.746601    14.027405    13.693523 
  -42.294804    29.751107    14.023305    13.704347 
  -60.985873    29.753921    14.021033    13.710954 
   4.9802533    29.754295    14.021441    13.716001 
  -11.988121    29.754869    14.021589    13.717171 
  -55.921201    29.754963    14.019354    13.718011 
  -12.066711     29.75282    14.016296    13.718142 
  -6.3145337    29.750194    14.009782    13.723189 
   22.407059    29.747316     14.00274    13.730583 
   42.425836    29.745335    13.999405    13.739364 
   82.824544     29.74505    13.999454    13.748773 
   83.478854    29.748078    14.002737     13.75753 
   14.471356    29.754445     14.00478    13.762204 
  -16.352254    29.761392    14.007446     13.76628 
  -25.101717    29.767684    14.009357    13.769648 
   -95.75931    29.772972    14.011643    13.771711 
  -70.301303     29.77443    14.011303    13.772161 
  -21.416245    29.773075    14.007338     13.77596 
  -59.589739    29.770864    14.005467    13.783779 
   112.21226     29.76627    14.007228    13.790646 
   142.42672    29.766164    14.010711    13.795758 
   83.460912    29.771755    14.015344    13.795661 
  -65.593186    29.780684    14.019705    13.792569 
   -43.99536     29.78699    14.023362    13.786796 
   27.644526    29.791536    14.027126    13.777957 
   19.126078    29.797187    14.028833    13.772142 
  -15.993042    29.803604    14.028175    13.767711 
  -51.242099    29.809381    14.028342    13.766856 
  -111.33932    29.813108    14.032215    13.768137 
  -44.477332    29.812382    14.034956    13.769974 
   109.58282    29.809877     14.03906    13.770057 
   17.342394    29.811755    14.041315    13.765968 
   35.896229    29.814326    14.041651    13.759321 
  -8.8895322    29.818334    14.041915    13.751206 
  -34.555398    29.821986    14.040551    13.741187 
   -42.58317    29.824255    14.037405    13.733464 
  -86.898225    29.824822    14.033381    13.725708 
  -174.85003    29.821912    14.027408    13.719252 
  -123.84082    29.812009    14.023003    13.715421 
  -14.435601    29.797151    14.021757    13.712969 
   127.11262    29.781717    14.022485     13.70861 
   149.96542    29.771367    14.023536    13.704093 
   88.754637    29.767015    14.022349    13.699351 
    75.35505    29.766214    14.018099    13.693789 
   26.969144    29.768427    14.010118    13.691174 
  -58.205467    29.771718    13.998378    13.692903 
   -109.5605    29.772682    13.988076    13.694281 
  -147.30207    29.769263    13.981477    13.695755 
  -150.49972    29.759952     13.97931    13.697637 
  -5.8846949    29.744621    13.981131    13.696814 
   144.09751    29.729054    13.982628    13.697192 
   229.87677    29.719252    13.983151    13.696316 
   227.22511    29.718644    13.982491    13.696002 
    96.71598    29.727126    13.980372    13.694761 
  -105.96315    29.739476     13.97545    13.694523 
  -177.82835    29.747588    13.969823    13.693178 
  -135.54655    29.748586     13.96684    13.692548 
  -57.637424    29.744163    13.965375    13.692726 
  -129.44245    29.737434    13.966674    13.695063 
  -60.827046    29.725527    13.969264      13.6951 
   215.24396    29.711188    13.971909     13.69182 
    289.7967    29.705458    13.973602    13.686948 
   165.18722     29.71132    13.976043    13.681357 
   25.312108    29.723789    13.976994    13.676763 
  -76.775229    29.737271    13.976572    13.673341 
  -114.84505    29.747682    13.974597    13.670572 
  -96.353636    29.753499    13.972719    13.667832 
  -129.38678    29.755462    13.970989      13.6642 
  -93.836408     29.75225    13.972602      13.6597 
   17.941133    29.745284    13.974375     13.65537 
   230.15351    29.739036    13.973581    13.650257 
   280.71826    29.741994    13.972051    13.644347 
   52.950122     29.75618    13.969509    13.640607 
   -44.39992    29.772485    13.966075    13.638057 
  -90.100849    29.787014    13.963806     13.63449 
  -157.84957    29.797938    13.963816    13.633166 
   -104.6607    29.802549    13.964384    13.631669 
  -121.01701    29.802973    13.968386    13.629813 
  -31.115177    29.798556    13.974108    13.627734 
   101.00338    29.792895    13.979714    13.624743 
   166.01092    29.791274    13.985048    13.621547 
   51.926002    29.796294    13.988044    13.617414 
  -107.42956     29.80339    13.991268    13.612102 
  -95.064133    29.806189    13.993933    13.605892 
   -28.05873    29.805186    13.999245    13.601951 
   5.2223892    29.803061    14.005611    13.600641 
  -38.496142    29.801144    14.013959    13.597619 
  -40.957477    29.797687    14.022302    13.592505 
  -19.603494    29.792593    14.028885      13.5847 
   177.46301    29.786714    14.033239     13.57733 
    145.5573    29.787933    14.035733    13.567712 
  -14.234737    29.794975    14.037189    13.557785 
  -153.93355    29.801447     14.03486    13.550011 
  -92.038571    29.801762    14.033112    13.543835 
  -134.96231    29.798396    14.032066    13.541329 
   19.055036    29.789631    14.032389    13.540811 
   1.7688695    29.781628    14.034234    13.540305 
  -26.139851    29.773696    14.033852    13.535864 
   66.727957    29.764719    14.033928    13.529546 
   184.05165     29.75841    14.031849    13.521782 
   158.38178    29.759464    14.024661    13.516159 
  -11.765956    29.766853    14.016674    13.512823 
  -186.45333    29.773771    14.008823    13.512185 
  -115.10429    29.773231    14.003336    13.513414 
   94.794484    29.768087    13.999914      13.5141 
  -11.612595    29.766735    13.999373    13.513166 
   116.22703    29.764918    13.999816    13.510569 
   182.91619     29.76775    13.999648    13.505178 
   79.683774    29.777899    13.999501     13.49643 
  -67.548148    29.791235    13.997048    13.488125 
  -25.691862     29.80187     13.99228    13.482502 
  -50.769987    29.811476    13.986882    13.479709 
   -259.0665    29.819052    13.983678    13.482149 
  -73.881974    29.816265    13.983607    13.487077 
  -36.025915    29.810523     13.98488    13.493245 
   27.317909     29.80334    13.985827    13.495455 
   60.303101     29.79725    13.987876      13.4965 
   126.63136    29.793572    13.990433    13.492947 
  -4.4004369    29.794959    13.992159    13.487645 
  -7.1325017     29.79617    13.993804    13.480494 
  -15.670128    29.797095    13.993872    13.475374 
  -178.42943    29.797394    13.993543    13.474978 
  -130.07085    29.790556    13.993365    13.477662 
   11.041028    29.778515    13.994909    13.483328 
   76.084791    29.766915    13.997883    13.490121 
   114.37923    29.758359    14.001569    13.494958 
   228.86019    29.754378    14.005009    13.496164 
   151.05594    29.759552    14.008813    13.495115 
   30.635278    29.770767    14.011713    13.491326 
   -96.61855    29.783209    14.014161    13.486869 
   -148.4523    29.791785    14.018581    13.483362 
   -142.9349    29.794423    14.026253     13.48475 
  -106.92422    29.791344    14.035314    13.486712 
  -31.856538    29.783988    14.044088    13.488109 
   97.709438    29.775358     14.05276    13.487935 
   126.54204    29.770636    14.061643    13.485665 
   233.64466    29.770976    14.068922    13.481954 
   211.02943    29.780661    14.073114     13.47691 
   54.447461    29.798788    14.072512    13.473076 
  -181.44924    29.819092    14.070317    13.469011 
   -297.4214    29.832139    14.067761    13.467222 
  -246.80779    29.833289    14.065082    13.465657 
   -107.6158    29.824566    14.060511    13.464826 
   -39.70806    29.811539    14.055895    13.464319 
   89.088651    29.796923    14.052017    13.462769 
   103.65459    29.785871    14.047087    13.457354 
   203.89728    29.778966     14.04141     13.45077 
   206.72734    29.780216    14.034786    13.441187 
   59.328526    29.789735    14.027963    13.429639 
  -186.80743    29.801627    14.021631     13.42249 
  -181.73488    29.806047     14.01353    13.421195 
  -232.29889    29.803198    14.005714    13.424739 
  -110.75595    29.791057    13.996993    13.429667 
   19.706033    29.774485     13.98923    13.431755 
   151.57125    29.758702    13.983961    13.431005 
   199.78089    29.748981    13.980466    13.426569 
   244.95842    29.747252    13.978824    13.419815 
   203.69655    29.755321    13.981569    13.412054 
   61.569569    29.771538     13.98458    13.406775 
  -164.72177    29.790218    13.988069    13.405933 
  -238.48939    29.802309    13.990463    13.406917 
  -229.34424     29.80486    13.994333     13.40952 
  -87.643041    29.798238    14.002761    13.411107 
   7.7364986     29.78811     14.01459    13.410035 
     175.987    29.778291    14.030734    13.403949 
   195.73591    29.775512    14.046936    13.396353 
   205.30638    29.780562    14.064257    13.387928 
   46.372493    29.793825    14.081605    13.381418 
  -62.384994    29.808942    14.099355    13.377084 
  -194.20909    29.821564    14.116555    13.373731 
  -183.89574    29.826417    14.132999    13.373858 
  -167.96245    29.823915    14.146413    13.374768 
  -45.281556    29.814695    14.157994    13.374705 
   22.655196    29.803663    14.169212    13.374557 
   137.81347    29.793537    14.180456    13.372852 
   220.94518    29.788924    14.191689    13.373602 
   227.51135    29.793148    14.198887    13.374519 
   23.441787    29.806473    14.201281    13.376514 
  -118.80668    29.820736    14.202057     13.37655 
  -306.53861    29.830246    14.202073    13.375936 
  -276.81126    29.827495    14.200041    13.374657 
  -166.36888    29.813672      14.1981    13.372275 
   1.1166729    29.793193    14.195955     13.37224 
   126.18425     29.77276    14.195592    13.369472 
   268.55962    29.757373     14.19605      13.3673 
   262.11415    29.752729     14.19375    13.366996 
   59.930172     29.75857    14.191515    13.370174 
  -104.15693    29.766808    14.189237    13.373807 
  -193.55147    29.770879    14.188118    13.375919 
  -218.58992    29.767209    14.189989    13.374437 
  -78.951941    29.754795    14.194313    13.373063 
   26.263918    29.739223    14.200291    13.371164 
   119.31591    29.724701    14.204414    13.368755 
   171.57246    29.714952    14.209983    13.364197 
   203.32632    29.712066    14.216154    13.361822 
   207.65954    29.717313    14.221859    13.364188 
   30.992346    29.730867    14.225298      13.3695 
  -137.81933     29.74566    14.229909    13.373445 
  -160.40211     29.75494     14.23462    13.375252 
  -168.15966    29.757804    14.241641    13.376553 
  -37.586443    29.753942    14.252692    13.376082 
   114.37745    29.748576    14.264426    13.373833 
   56.337244    29.747786    14.275366    13.373203 
   182.85353    29.749249    14.282836    13.370862 
    93.20842    29.758026    14.282454    13.366237 
   32.535045    29.770531    14.276712    13.358041 
   29.739816    29.784338    14.268181    13.345981 
  -135.11938    29.799335    14.261156    13.331097 
  -304.47026    29.808926    14.256309    13.314831 
  -186.31979    29.806339     14.25427    13.298171 
  -67.485408    29.796299    14.256576    13.280424 
   33.755791     29.78356    14.260966    13.262605 
   71.594613    29.772171    14.266115    13.246714 
   168.84125    29.763645    14.269521    13.234556 
   113.75333    29.761874    14.269327    13.226709 
   25.241792    29.764652    14.268209    13.222316 
  -78.167679     29.76844    14.264565    13.218836 
  -189.59768    29.769102    14.263149    13.215067 
  -182.04899    29.762179    14.263987    13.212302 
  -104.45272    29.747975    14.265445    13.210385 
   110.51488    29.729592    14.268332    13.207176 
   228.22887     29.71563    14.271098    13.205393 
   98.854864    29.710797    14.272083    13.205292 
   109.82357    29.709919    14.268938    13.208238 
   82.228101    29.713433    14.262043    13.212078 
  -37.103897    29.720237    14.253516    13.215936 
    -161.044    29.725556    14.244174    13.220325 
  -132.81098    29.724433     14.23338    13.224717 
  -178.80128    29.717998     14.22809    13.227269 
  -49.487637    29.704411    14.226805    13.228905 
   239.19915    29.688845    14.229209     13.22863 
    217.7198    29.682846    14.234751    13.225928 
   152.96944    29.685557    14.241954    13.224538 
   125.05467    29.694386    14.245161    13.224988 
  -12.023722    29.708217    14.246894     13.22613 
  -92.045367    29.721567    14.247577    13.228987 
  -99.910407    29.731236    14.247688    13.232903 
  -148.95265    29.736908    14.248196    13.236606 
  -80.687091    29.736622    14.252943    13.239242 
  -173.94702    29.733108    14.260671     13.23944 
   90.384101    29.722637    14.271556    13.238302 
   173.34363    29.715781    14.284676    13.237335 
   161.35568    29.715859    14.297877    13.239309 
   107.44808    29.722391    14.307059    13.243243 
  -20.752496    29.733221    14.314088    13.248604 
  -55.600667     29.74322    14.321472    13.252635 
  -176.89177    29.750996     14.32899    13.257061 
  -129.60985    29.751696    14.338011    13.262008 
  -66.533988    29.747212    14.348697    13.267595 
  -48.961527    29.740066    14.359397    13.272256 
   77.517514    29.730962    14.369247    13.277744 
   196.18503    29.724958    14.377301    13.282616 
   212.53184    29.726802    14.383902    13.287392 
   90.696069    29.737148    14.388071    13.294743 
    30.83088    29.751121    14.392116    13.303057 
  -2.8177068    29.766327    14.396517    13.310961 
  -128.41384    29.781421    14.402811    13.318799 
   -143.4351    29.791378    14.410643    13.323953 
  -123.01668    29.795597    14.418865     13.32643 
  -79.613597    29.794896    14.427412    13.326389 
   70.293167    29.791011    14.435372    13.325838 
   137.33924    29.789937    14.441882    13.323835 
   103.77062    29.794357    14.450536    13.322174 
  -110.62616    29.802927    14.458286    13.319201 
  -58.246402    29.807073    14.465144    13.312393 
  -117.35554    29.808888    14.471527    13.304773 
  -24.120762     29.80601     14.47797    13.295711 
  -15.499369    29.802166    14.484212    13.285667 
   127.62715    29.797703    14.490367    13.277389 
   105.25408    29.798345    14.495582    13.269029 
  -42.398553    29.803196    14.502162    13.260119 
   49.594896    29.806352    14.508905    13.246928 
  -51.738588    29.811492    14.513911    13.231342 
  -80.840234    29.814562    14.517721    13.216114 
  -170.51142    29.814399    14.520621    13.201475 
  -96.587864    29.807415    14.523926    13.187315 
  -12.642388    29.796568    14.530396    13.175011 
   3.6382361    29.785214    14.539255    13.162721 
   208.93842    29.774007    14.549856     13.15364 
   222.88221    29.771157    14.561953    13.146869 
   154.86567    29.777222    14.574067    13.141723 
  -151.49279    29.789482    14.588087    13.137965 
  -165.42793    29.795682    14.600595    13.134181 
  -166.46343    29.795265       14.614    13.129304 
  -122.57674     29.78819    14.627932     13.12547 
   20.029717    29.776211    14.640835    13.121601 
   105.54738    29.765034    14.652328    13.118801 
   138.29745    29.758078    14.662797      13.1163 
   247.35768    29.756655    14.671072    13.114848 
    163.8776    29.765126    14.677786    13.113655 
  -43.908685    29.780151    14.684405    13.114126 
  -195.32776    29.793421    14.693301    13.114254 
  -173.39709    29.798877    14.704431    13.113799 
  -123.51957    29.797398    14.716152    13.110874 
   31.998802    29.790978    14.729768    13.107304 
   26.967685    29.785837    14.742518     13.10302 
   56.918375    29.781776     14.75254    13.099754 
   135.86262    29.779991    14.758377    13.099236 
   154.49314     29.78364    14.761267    13.100216 
   137.85225     29.79347     14.76361    13.099541 
  -98.485808    29.808813    14.770102    13.099333 
  -259.06324    29.820217    14.777464    13.098516 
  -197.19819    29.821259     14.78537    13.095384 
  -16.115045    29.814412    14.792214    13.092715 
  -2.1257337    29.806921    14.798358    13.092134 
   72.637034    29.799345    14.802775    13.092774 
   83.754298    29.794674    14.806113    13.091608 
   151.44668    29.793354    14.807532    13.091953 
   78.496679    29.798091    14.807256    13.092962 
  -6.4222305    29.805969    14.808337    13.095867 
  -188.35123    29.813589    14.812281    13.099284 
  -280.82578    29.813675    14.819301    13.102034 
  -125.63706    29.802529    14.827797    13.104198 
  -95.458537    29.786357    14.834396    13.104383 
    84.56402    29.766366     14.83802    13.103065 
    132.0733    29.749758    14.837763    13.100349 
   145.69544    29.738433     14.83435    13.097282 
   53.048989    29.732936    14.828231    13.096666 
   68.608312    29.729561    14.824002    13.098924 
   34.989239     29.72893    14.820913    13.103151 
  -42.027208    29.729699    14.818103    13.108454 
  -31.847037    29.728786    14.814899    13.111578 
   -50.88123      29.7266     14.81332    13.112998 
  -16.694674    29.722378    14.812264    13.111922 
   127.59327    29.717489      14.8116    13.112676 
   139.44648    29.717703    14.809181    13.115333 
   4.9555864    29.723496    14.804871    13.118787 
   35.013417    29.729486    14.800702    13.122015 
   35.358149    29.736877    14.798156    13.125969 
   29.110885    29.745682    14.800125    13.132568 
  -60.821158    29.755652    14.805147    13.138891 
  -120.46575    29.763189    14.810667    13.145203 
  -94.392896    29.765908    14.815094    13.149485 
 -0.76093574     29.76485    14.818705     13.15014 
  -32.764853    29.763762    14.823097    13.149885 
  -18.629256    29.761364    14.826963    13.149407 
   39.638039     29.75822     14.82778    13.147999 
   19.162729    29.756662    14.830003    13.147973 
   73.461893    29.755871     14.83186    13.148374 
  -3.9189063    29.758017    14.834504    13.149893 
  -26.079297    29.760008    14.836033    13.151027 
  -56.016373    29.760955     14.83689     13.15209 
   -79.76989    29.759661    14.835867    13.149723 
  -48.295738    29.755176    14.833485    13.146241 
   77.386605     29.74876    14.831036    13.137866 
  -11.797532    29.745439    14.827979     13.12526 
  -67.663883    29.741646    14.825099    13.112576 
   68.662493    29.735147    14.819364     13.10275 
    132.8043    29.731394    14.810785    13.096857 
     48.4533    29.732954    14.802192    13.093954 
  -12.631196    29.736451    14.795928    13.091266 
   13.882359    29.739444    14.792615      13.0877 
  -128.57164    29.742991    14.789335    13.082415 
  -109.18484    29.741396    14.784843    13.076478 
  -54.427729    29.735433    14.780315    13.069962 
    52.19047    29.727293    14.776864    13.061941 
   54.205746    29.721241     14.77345    13.051922 
   134.63254    29.717357    14.772089    13.042301 
   109.83227    29.718858    14.768111    13.034406 
   6.8350762    29.724753    14.761545    13.030144 
   4.0429269    29.730921    14.754904    13.026384 
   16.093372    29.737251    14.748121       13.022 
  -144.74569    29.744224    14.742134    13.013435 
  -103.66044    29.745408    14.735087     13.00222 
   -182.6635    29.742445    14.728506    12.990019 
    46.42857    29.732176    14.722986    12.979557 
   140.48837    29.723764    14.716164    12.972922 
   196.16041    29.720971    14.709964    12.968923 
   133.62169    29.726025    14.705007    12.965987 
   21.004861    29.736423    14.698227    12.962939 
   -95.64722    29.747662    14.692289    12.961628 
  -80.896411    29.755075    14.688406    12.961068 
  -102.77777    29.759252    14.686984    12.959629 
  -128.73432    29.759318    14.688652    12.957395 
  -5.6202694    29.754235    14.689935    12.952546 
   44.935942    29.748927    14.689215    12.947143 
   97.577738    29.745416    14.687694    12.945012 
   71.607644    29.745808    14.686151    12.946885 
   26.353876    29.749065    14.685048    12.953471 
   69.528291    29.753376    14.684528    12.958522 
   1.9139836    29.760468    14.683676    12.963251 
  -29.145659    29.767636    14.683899    12.968479 
  -96.578272    29.773639    14.684998    12.969552 
  -91.514416    29.775778    14.688891    12.968929 
  -77.634309    29.774257    14.694189    12.968996 
  -14.700294    29.769631    14.698503    12.970122 
   125.52434    29.764417    14.699694    12.975071 
   111.07208    29.764223    14.696807    12.984497 
   92.837667    29.768473    14.692559    12.996291 
   90.000401    29.776436    14.684936    13.006133 
   11.678255    29.787999    14.676712    13.012539 
  -70.138437    29.800029    14.670216    13.016536 
  -179.77773    29.809253    14.665712     13.01932 
  -151.21717    29.811287    14.662576    13.020922 
  -44.286753    29.807271    14.660548    13.024109 
   13.378466    29.801485    14.656031     13.02898 
   107.09635    29.796233    14.649335    13.037089 
   71.192636    29.795265    14.642246    13.046322 
   78.162763    29.797145    14.636636    13.054331 
  -29.286369    29.802152    14.633319    13.059468 
  -42.226703    29.805987    14.630565    13.061317 
  -119.62622    29.808133    14.630456    13.058319 
  -144.56175    29.805494    14.633087    13.054533 
  -104.49931    29.797072    14.637577    13.050574 
   52.367898    29.784471    14.642507    13.049547 
   140.26459    29.773964    14.646007    13.050086 
   115.41462    29.769068    14.645065    13.053871 
   52.186926    29.768788    14.640698    13.059914 
[...]
  -110.73962    29.602419    16.714703    14.729439 
  -128.81239    29.604198     16.71137    14.724142 
  -120.31655    29.600824    16.710314    14.720652 
  -6.8619858    29.592637    16.714042    14.718165 
   37.231845    29.584176    16.719343    14.713392 
   50.214781    29.577204    16.719397    14.704807 
   167.22894    29.572241    16.710601    14.691988 
   116.33155    29.573967    16.694581    14.681411 
    16.14208    29.580346    16.678283    14.674999 
  -120.87157    29.587371    16.664114    14.675306 
  -168.68998    29.589561    16.654758    14.678357 
  -93.848747    29.585004    16.652028    14.685251 
   78.313993    29.576692    16.656135    14.694737 
   26.358897    29.571513     16.66335    14.703767 
   26.386259    29.567388    16.674175    14.709556 
   112.24486    29.564319    16.683742    14.711008 
   174.44479     29.56574    16.692353    14.707768 
   117.41951    29.574138    16.696346    14.704937 
  -73.461133    29.587234    16.694052      14.7057 
  -221.03369     29.59739    16.687399    14.709127 
  -199.36902    29.598706     16.68153    14.715721 
  -6.0501911    29.592046      16.6811    14.724734 
   12.047733    29.585145    16.682657    14.733044 
   93.440956    29.578726    16.687793    14.742879 
   107.49708    29.576044    16.694883    14.753433 
   75.167638    29.577662    16.701939     14.75727 
   48.132539    29.582287     16.70441     14.75437 
   -13.15969    29.588837    16.702876    14.747468 
   -157.4762     29.59486    16.693074    14.739332 
  -79.421382    29.594585    16.677536    14.733381 
  -17.165298    29.591133    16.662224    14.729215 
  -66.746315    29.586994    16.651168    14.728327 
  -3.6632408    29.580185    16.646171    14.730574 
    77.33178     29.57323    16.644069    14.735679 
   144.83914    29.569368    16.645831    14.743547 
   158.54163      29.5713    16.645728    14.746652 
   140.78458    29.579573    16.644723    14.745251 
  -87.034436    29.593478    16.642062    14.738216 
  -135.72768    29.603901    16.636885    14.728052 
  -150.18519    29.608895    16.624694      14.7192 
  -127.51699    29.607882     16.60953    14.715499 
  -93.012549    29.601768    16.595463      14.7153 
   4.7568102    29.591934    16.585087    14.718282 
  -2.2997099     29.58229    16.580432    14.722903 
   78.196273    29.572554    16.573989     14.72549 
   145.69774    29.565945    16.564859    14.723482 
   92.293206    29.565165    16.551719     14.71486 
   -15.26056    29.568076    16.537251    14.700883 
   -106.8354    29.570377    16.521345    14.689206 
     -84.001    29.568405    16.507733    14.681105 
  -88.096661    29.563072    16.499513    14.675442 
   57.896563    29.554216    16.497346    14.674332 
    92.48201    29.547675    16.498056    14.675176 
   120.66201    29.544834    16.501204     14.67653 
   98.693839    29.546819    16.505175    14.677686 
  -14.919887    29.552752    16.506462    14.677293 
  -80.896124    29.558089     16.50101    14.670341 
  -69.497722    29.560189    16.488915    14.658246 
  -59.761774    29.559509    16.479381     14.64532 
  -17.349971    29.556439    16.471048    14.630581 
    32.15057    29.552675    16.464859    14.616427 
   28.754654    29.550197    16.462653     14.60542 
   124.83237     29.54887    16.465165    14.598231 
   91.401359    29.552535    16.466465    14.591868 
  -25.370378    29.559857    16.467405    14.584335 
  -56.229083    29.566163    16.461012    14.570784 
   42.274443    29.570221    16.450918    14.553709 
  -90.565682     29.57597    16.439171    14.532872 
  -24.943961    29.578095    16.429453    14.513613 
   -43.74813    29.579224     16.42329    14.495697 
  -29.038792    29.578602    16.418508    14.480589 
   135.00128    29.576819    16.415481    14.471783 
    93.06117    29.580435    16.410656    14.465852 
   101.81614    29.587774      16.4065    14.461189 
   18.077545    29.599186    16.401786    14.455787 
  -53.706082    29.611321    16.393918    14.449598 
  -127.29798    29.621308    16.384904    14.440164 
  -186.88588    29.626203    16.378005    14.429281 
  -74.888754    29.623622    16.373632    14.418758 
   26.330576    29.618046    16.373058     14.41039 
   85.843736    29.613523    16.376873    14.404274 
   104.65686    29.612434    16.381207    14.404375 
   155.08686    29.615531    16.386737    14.410255 
   38.425199    29.624831    16.396207    14.416802 
  -6.7531766    29.635669    16.408659     14.42385 
  -3.9543577    29.646236     16.41851    14.429353 
  -159.99634    29.656645    16.423797    14.432159 
  -177.69688    29.660655    16.424692    14.433098 
  -121.59235    29.657556    16.422618      14.4336 
   35.494564    29.649594    16.420835    14.434246 
  -14.579495    29.643051    16.417723    14.435828 
   108.84364    29.635926    16.414977    14.439826 
   26.828251    29.633154    16.414522    14.443654 
   23.636055    29.631455    16.418616    14.447741 
  -1.6805568    29.630702    16.421568     14.44936 
   -88.51568    29.629881    16.424237    14.449921 
  -89.409678     29.62552    16.425358    14.449585 
  -131.28217    29.617583    16.425371    14.447278 
  -68.554119    29.604394    16.423099    14.440682 
   74.888303    29.588463    16.418265    14.430717 
   166.63221    29.575528    16.411132    14.416811 
   152.01406    29.569257    16.400579    14.401648 
   24.470367    29.569068    16.391692    14.387335 
   13.902986    29.569857    16.384547    14.372613 
    21.43678    29.571202    16.379024    14.361028 
  -143.88657    29.573405    16.376861    14.349433 
  -117.49241    29.569852    16.376752    14.338718 
  -34.489155      29.5616    16.377263    14.326377 
   13.908947    29.551968    16.379955    14.317236 
    41.40137    29.542893    16.382767     14.30631 
   70.610593    29.535473    16.386035    14.295364 
    112.5371    29.530878    16.388849    14.285643 
   46.857531    29.530784    16.394311    14.277868 
   70.180571    29.532565    16.402705    14.274919 
   103.22766    29.537153    16.413319    14.272056 
  -45.079076     29.54587    16.427306    14.267738 
  -171.74815    29.552784    16.443194    14.264065 
  -139.38561    29.552828    16.456456    14.261513 
  -117.04682    29.547296    16.465392    14.262447 
   39.419048    29.537083    16.470949    14.265727 
 0.043287275    29.528447    16.474973    14.270713 
   8.0546198    29.519812     16.47766    14.273494 
   69.477976    29.511499    16.482739      14.2763 
   130.63788    29.505965    16.491631    14.280833 
   117.78009    29.505657    16.503529    14.284875 
  -61.802799    29.510061     16.51937    14.289585 
  -139.82924    29.511992    16.537202    14.294776 
  -93.082136    29.508329    16.554775    14.298671 
   37.229656    29.500944    16.568589    14.302363 
   30.144389    29.495048    16.581411    14.301762 
   130.43203    29.490357    16.588846     14.29825 
    93.12572    29.490884    16.596344    14.292559 
   38.410713    29.495136    16.606337    14.286087 
    90.35378    29.500924    16.618807    14.280471 
  -22.351736    29.510327    16.631451    14.274269 
  -133.79465    29.518835    16.642445    14.268637 
  -125.94448    29.521992    16.651946    14.264364 
    -132.607    29.520111    16.656203    14.261712 
   -11.95095    29.512925    16.659449    14.261438 
   101.46575    29.505262    16.662814    14.262126 
   200.42624    29.501657    16.662501    14.265328 
    174.9086    29.506069    16.662408    14.268073 
   12.583354    29.517478    16.662543    14.273501 
  -82.685744    29.529389    16.666106     14.27918 
  -151.34804    29.537994    16.670059    14.284935 
  -281.20403    29.540544    16.673348    14.289918 
  -185.51217    29.531847    16.677933    14.296352 
   16.032067    29.515729    16.682875    14.303427 
   89.007707    29.500252    16.687954    14.311196 
   143.88354    29.488335    16.692079    14.318186 
   181.37069    29.482174    16.694879    14.322863 
   176.48935    29.483267    16.696982    14.326278 
   52.392021    29.491421    16.699387    14.330676 
  -68.752308     29.50167    16.701664    14.334794 
  -118.16483    29.509168    16.703935    14.338918 
  -209.02595    29.511941    16.708854    14.342751 
  -154.00775    29.506352    16.717347    14.347885 
  -1.8448399    29.494602    16.729017    14.356445 
   131.60343     29.48278    16.737854     14.36363 
   238.93083    29.476221    16.743856    14.366227 
   138.07797    29.479219    16.746442    14.365436 
   75.283464    29.487741    16.744049    14.360722 
    -8.16799    29.499274    16.739892    14.355471 
  -26.271024     29.51048    16.736509    14.350199 
  -146.64587    29.520635    16.734104    14.345157 
  -228.34146    29.524924     16.73179    14.340639 
  -60.056845     29.52008    16.734483    14.339228 
   50.351808    29.512834     16.73725    14.336791 
   179.68918    29.507601    16.738591    14.334418 
   121.82063    29.509557    16.737504    14.328068 
   131.62068    29.516385    16.734423    14.322316 
   64.781349    29.528477     16.72897    14.315131 
  -30.294556    29.543162    16.725141    14.307734 
   -94.19249    29.556634    16.719821    14.301257 
  -178.75142    29.566338    16.712606    14.292233 
  -148.26456    29.568893    16.708409    14.287242 
  -26.692019    29.565517    16.706857    14.284194 
   115.79758    29.561073     16.70689    14.285645 
   43.989195    29.561261    16.708738    14.287135 
   75.599483    29.563209    16.711362    14.287374 
   122.93129    29.568181    16.713825    14.284094 
   162.28246     29.57807    16.715448    14.283856 
   82.062306     29.59445    16.716063    14.283854 
  -107.34128    29.614113    16.715691    14.285289 
  -226.90385    29.629482    16.715133    14.285073 
  -179.92931    29.635775    16.717128    14.285564 
  -20.163624    29.634871    16.722086    14.288397 
   45.366582     29.63316    16.729629    14.294963 
   60.072132    29.633264    16.739035    14.302304 
   89.124122    29.635771    16.749004    14.307023 
   120.00364    29.641843    16.757254    14.310729 
   62.552097    29.652715    16.763801    14.312076 
  -49.963925    29.666089    16.770752    14.313011 
  -71.568453    29.677464    16.776556     14.31527 
  -128.49822    29.685977    16.781826    14.318478 
  -62.211881    29.689349    16.787327    14.321603 
  -36.546186    29.690234    16.792258    14.323064 
  -2.4645461    29.689656     16.80019    14.324991 
  -75.218792     29.68898    16.808338    14.328605 
   48.038601    29.685295    16.813352    14.332118 
   65.713965    29.683532    16.815225    14.335241 
   40.657318    29.684397    16.813874    14.340251 
  -18.878113    29.686889    16.809734    14.347072 
  -71.907888    29.688625    16.805764    14.354971 
  -140.25955    29.687485    16.802432    14.364455 
  -35.516486    29.680735    16.800038    14.373467 
   53.075876    29.672564    16.793728    14.377949 
  -71.443004    29.666516    16.785982    14.381414 
    85.22791     29.65761    16.776181    14.379421 
   68.506882    29.652114    16.765479    14.378391 
   178.52631    29.649357    16.755534    14.380132 
   17.280084    29.653742    16.745789    14.387991 
  -78.194551    29.658818    16.742567    14.401044 
   -129.1833    29.660766    16.741511    14.415855 
  -158.12377    29.657547    16.743004    14.429347 
   2.1173635    29.648003     16.74049    14.441171 
  -85.172057    29.638544    16.735538    14.450466 
  -37.703869    29.625678    16.726837    14.455029 
   70.122589    29.611303    16.715301    14.455424 
   68.687722    29.599734    16.702564    14.451472 
   141.08583    29.590912     16.69119    14.448173 
   58.342452    29.587733    16.680984    14.447622 
  -16.216455    29.586888    16.675482    14.449945 
  -79.095384    29.585395    16.673626    14.454855 
  -97.203743    29.580737    16.675701    14.459619 
  -47.745013    29.572192    16.676511    14.462022 
  -73.162739    29.561737    16.673216    14.458068 
  -18.497253    29.548355     16.66359    14.450963 
   60.628702    29.534233    16.649321    14.442789 
   157.38403    29.522537    16.630034    14.437437 
   97.729185    29.517135    16.612444    14.435526 
  -15.316543    29.515643    16.597248    14.434898 
   48.300545    29.513539     16.58675    14.437675 
   70.694535    29.513366    16.578585    14.443284 
   32.271984    29.516021    16.573173    14.446452 
   72.478638    29.519967    16.568227    14.446421 
   10.733327    29.526812    16.560085    14.441512 
  -106.41069    29.534087    16.548584    14.431467 
   -64.93127    29.537105    16.537872    14.420645 
   25.205026    29.537526    16.527133    14.412787 
   179.87432    29.538955    16.519794     14.40776 
   67.924724    29.547579    16.515124    14.407353 
  -97.984862     29.55892    16.510417    14.411656 
  -90.054811    29.566341    16.507639    14.418147 
  -42.892512    29.570161    16.508763    14.422911 
   -11.97025    29.572264    16.508298    14.421639 
  -72.274915    29.573889    16.507885    14.410753 
  -86.994085    29.572623    16.505376    14.394395 
  -9.2547483    29.567877    16.508575    14.376371 
   118.82118    29.562761    16.516092    14.362355 
   139.40773    29.562398    16.525135    14.354096 
   70.192994    29.567611    16.535436    14.350307 
  -48.297724    29.575632    16.547234    14.350325 
   2.6793409    29.581721    16.561593    14.352372 
  -24.096003    29.587917    16.576694    14.354616 
   -54.19701    29.593149    16.593532    14.353377 
   -90.86765    29.596213    16.608024    14.347329 
  -67.359088    29.595643    16.621958    14.335091 
   59.868567    29.592378    16.634439    14.322879 
   28.757646    29.591508    16.646522    14.311721 
   79.359082    29.591788    16.657676    14.300259 
  -13.923939    29.595243    16.668427    14.291531 
  -50.100207    29.598141    16.680379    14.285405 
  -45.541005    29.599035    16.690747    14.279254 
   5.4793627    29.598107    16.701362    14.272742 
   10.902268    29.597398    16.712298    14.266129 
  -2.0567954    29.597125    16.720437    14.257746 
  -42.078007     29.59677    16.724727    14.249996 
  0.28043117    29.594732     16.72932    14.242944 
  -27.457305    29.592705    16.732921    14.236612 
  -5.0107171     29.58958    16.736521    14.231857 
   111.44406    29.586255    16.740363    14.228372 
   78.434622    29.587387    16.740279    14.225293 
  -13.578263    29.591657    16.738731    14.222316 
   32.155478    29.595383    16.735269    14.215565 
  -1.6919943    29.600396    16.730038    14.205383 
  -61.460655    29.605341    16.727146    14.194853 
   18.701804    29.607827    16.726554    14.180658 
  -124.82436    29.611062      16.7269    14.167854 
   10.812002    29.609304     16.72886    14.157571 
   -1.923029    29.607978    16.730019    14.152988 
   69.481206    29.606575    16.729811    14.151401 
   56.166961    29.607951    16.726105     14.15161 
   11.688386    29.611575    16.725025    14.151855 
  -126.92737    29.615665     16.72497    14.149245 
  -101.67438    29.614679    16.727738    14.142778 
  -69.732591    29.609626    16.734586     14.13297 
   20.507479    29.601783    16.744453    14.122299 
   84.713931     29.59476    16.756476    14.114783 
   124.73785    29.591127    16.770068    14.114422 
   73.585222    29.592482    16.783638    14.116289 
   69.595828    29.596781    16.796288    14.118666 
  -44.012963    29.603864    16.811095    14.121429 
  -73.874006    29.609187    16.829059    14.120701 
  -15.750248    29.611554    16.848478    14.119087 
  -91.260167    29.613292    16.867517    14.114844 
   8.5223803    29.611379    16.888777    14.108755 
   27.753706    29.609807    16.908777    14.103375 
   37.294785    29.609345    16.925123    14.099795 
  -49.442602    29.610375    16.937296    14.097266 
  -18.484413    29.609427    16.946681    14.094361 
   113.85857     29.60774    16.952029    14.088231 
   23.375618    29.610607    16.955363    14.082718 
  -18.690442    29.614409    16.957628     14.07616 
  -55.571706    29.617463    16.959309     14.06914 
  -110.50484    29.618295    16.958621    14.062762 
   28.513521    29.614707    16.959094    14.057981 
   61.328356    29.612259    16.958611     14.05735 
   117.46736    29.612264    16.957558    14.060781 
    26.51774    29.616968     16.95582    14.066965 
   3.2228634    29.622732    16.951347    14.073242 
  -66.933654    29.628626    16.943534     14.07893 
  -100.95406    29.631842    16.935131     14.08471 
  -66.755184     29.63102    16.926907    14.085654 
  -84.039341    29.627528    16.919682    14.084157 
  -73.596857    29.620674    16.915491    14.083539 
  -19.562133    29.610876    16.910693    14.083859 
   118.57643    29.600296    16.905835     14.08523 
   104.89963    29.594459    16.900184    14.089071 
  -2.3394316    29.592818    16.896987    14.093268 
  -62.666304    29.591083    16.894799    14.098187 
  -99.481591    29.586841    16.892504    14.100158 
   89.979608    29.578621    16.888067    14.098442 
  -9.8471045    29.573999    16.881762    14.094662 
   8.2768173    29.568984    16.875505    14.093289 
   67.740239      29.5643    16.870074    14.096448 
   120.44765    29.562325    16.865013    14.103369 
   110.36986    29.565168    16.860136    14.112446 
   69.014421    29.572427    16.856623    14.122953 
  -53.866886    29.582445    16.853561    14.130509 
 -0.61589561    29.590309    16.850471    14.137068 
  -83.586689    29.598148    16.846165     14.14162 
   -76.51056    29.602644    16.842308    14.146922 
  -119.16826     29.60408    16.837563    14.151594 
  -32.956278    29.600748    16.834209    14.157458 
   5.5959023    29.596099    16.830761    14.168127 
   161.80965    29.591673    16.827235    14.183563 
   -7.981697     29.59372    16.825079    14.200884 
  -7.2226238    29.595447    16.828148    14.219846 
  -9.9294023    29.596886    16.832589    14.237937 
  -44.263488    29.597927    16.834331    14.251816 
  -125.27953    29.597198    16.831511    14.262281 
   -4.251398    29.591457    16.827146    14.269177 
  -4.1624453    29.585547    16.824554    14.274955 
    23.31201     29.57947    16.824059    14.280555 
   61.686002    29.574326    16.828221    14.290996 
   140.55227    29.571649     16.83523    14.303769 
   94.486811    29.574594    16.846796    14.318248 
   104.04701    29.581318    16.861424    14.330792 
   11.276115    29.592205    16.875259    14.342581 
   -64.62346    29.603542    16.886914    14.348825 
  -128.29106    29.612295    16.895213    14.351093 
   -84.18859    29.615915    16.902391    14.351831 
   4.9079127    29.616169    16.909515    14.352238 
   77.320894    29.616618     16.91309    14.352343 
Loop time of 300.981 on 4 procs for 50000 steps with 8887 atoms

Performance: 287061.107 tau/day, 166.123 timesteps/s
99.9% CPU use with 4 MPI tasks x no OpenMP threads

MPI task timing breakdown:
Section |  min time  |  avg time  |  max time  |%varavg| %total
---------------------------------------------------------------
Pair    | 184.61     | 221.75     | 260.44     | 247.5 | 73.67
Bond    | 0.0077922  | 0.013132   | 0.017974   |   3.2 |  0.00
Neigh   | 30.652     | 30.691     | 30.727     |   0.6 | 10.20
Comm    | 7.8994     | 46.439     | 83.351     | 537.8 | 15.43
Output  | 0.70108    | 0.75603    | 0.83981    |   6.0 |  0.25
Modify  | 0.59074    | 0.78689    | 0.97041    |  18.0 |  0.26
Other   |            | 0.5499     |            |       |  0.18

Nlocal:    2221.75 ave 2670 max 1771 min
Histogram: 2 0 0 0 0 0 0 0 0 2
Nghost:    5512.75 ave 5963 max 5065 min
Histogram: 2 0 0 0 0 0 0 0 0 2
Neighs:    340979 ave 399177 max 284101 min
Histogram: 2 0 0 0 0 0 0 0 0 2

Total # of neighbors = 1363915
Ave neighs/atom = 153.473
Ave special neighs/atom = 0.00540115
Neighbor list builds = 5000
Dangerous builds = 5000
Total wall time: 0:05:01
