LAMMPS (17 Nov 2016)
Reading data file ...
  orthogonal box = (0 0 0) to (60 30 30)
  2 by 1 by 2 MPI processor grid
  reading atoms ...
  8887 atoms
  scanning bonds ...
  1 = max bonds/atom
  reading bonds ...
  9 bonds
Finding 1-2 1-3 1-4 neighbors ...
 Special bond factors lj:   0          0          0         
 Special bond factors coul: 0          0          0         
  2 = max # of 1-2 neighbors
  2 = max # of 1-3 neighbors
  4 = max # of 1-4 neighbors
  6 = max # of special neighbors
10 atoms in group polymer
1 atoms in group first
Neighbor list info ...
  1 neighbor list requests
  update every 1 steps, delay 10 steps, check yes
  max neighbors/atom: 2000, page size: 100000
  master list distance cutoff = 3.3
  ghost atom cutoff = 3.3
  binsize = 1.65, bins = 37 19 19
Setting up Verlet run ...
  Unit style    : lj
  Current step  : 0
  Time step     : 0.02
Memory usage per processor = 4.13948 Mbytes
v_ftotal c_com[1] c_com[2] c_com[3] 
   136.78628         17.5           15           15 
   128.85462    17.503561    15.003346    15.011499 
   74.723638    17.512277    15.006083    15.020866 
   51.009592    17.523982    15.006185    15.027398 
   144.65144    17.537727    15.007342    15.032375 
   123.15069    17.557258     15.00867    15.038843 
   127.27926    17.581715    15.010316    15.048115 
   106.03577    17.611263     15.01069    15.057481 
   121.81157    17.645053    15.010867    15.067057 
    64.75415    17.683715    15.012701    15.074503 
   56.078858    17.724967    15.015779    15.081845 
   61.811679    17.768462    15.019312    15.089879 
   131.69573     17.81443    15.024243    15.096821 
   56.783798    17.865666    15.028247    15.104514 
   71.162556    17.919173     15.03213    15.113292 
    89.91421    17.975527    15.037279    15.119717 
   28.638228    18.035477    15.041169    15.127798 
   93.203036    18.096573    15.044501    15.134305 
   67.052545    18.161396    15.049228    15.140372 
    87.71139    18.228902    15.052249    15.146629 
   55.958552    18.299917    15.053562    15.154949 
   55.082616    18.373169    15.053597     15.16193 
   108.42357    18.448625    15.055018    15.169311 
   14.604587    18.528418    15.055065    15.178775 
   53.709393    18.608795    15.054614    15.187751 
   20.302388    18.691321    15.053234    15.196285 
   39.575606    18.774659    15.051613    15.204941 
   11.876266    18.859579    15.052702     15.21218 
   34.537908    18.944975    15.056754    15.220247 
   28.496294    19.031752    15.057674    15.228426 
   25.608315    19.119669    15.058849    15.235566 
   85.199264     19.20861    15.060137    15.242185 
   73.630742     19.30096     15.05972    15.248875 
   15.031462    19.396254    15.057313    15.258109 
   93.238454     19.49215     15.05422     15.26631 
     13.8173    19.591776    15.051663    15.274537 
   31.454037    19.691954    15.050133     15.28154 
    37.71202     19.79339    15.050723     15.28851 
   16.842651    19.896335    15.054296    15.294216 
   31.423948    19.999953    15.058131    15.300796 
  -2.7690328    20.104828    15.061753    15.305639 
    34.79924    20.209593    15.063813    15.309432 
   69.864157     20.31575    15.066253    15.313758 
    6.370589    20.424701    15.068802    15.318188 
   55.203839    20.533907    15.072682      15.3221 
  -6.8276962    20.645321     15.07671    15.325183 
   48.382014    20.756462    15.079242    15.326928 
   41.975331    20.869538    15.080698     15.32995 
  -1.1448556    20.984294    15.082174    15.331621 
   1.4051778    21.099003    15.082715    15.333359 
   1.5432685    21.213769    15.081671    15.336163 
   23.297667    21.328596    15.080736    15.339255 
   19.643496    21.444356    15.079951    15.341899 
   39.640711    21.560901    15.078891    15.344791 
   79.544264    21.679031    15.077142    15.348064 
   7.9576932    21.800344    15.074459     15.35054 
   3.6097828    21.921975     15.07162    15.354166 
   5.9543209     22.04375    15.070462    15.358937 
   48.504667    22.165763    15.068274    15.362923 
  -11.063346    22.289717    15.064266    15.366195 
   5.7953469    22.413228    15.060329     15.36854 
   -25.97194    22.536971    15.057138    15.370239 
   33.372061    22.659675    15.056098    15.368122 
  -32.769703    22.783714    15.054924    15.366153 
  -2.8831999    22.906442    15.053127    15.365156 
  -41.748399    23.029054    15.051933    15.364385 
  -44.226729    23.149997    15.051856    15.363197 
   12.643881    23.269171    15.050564    15.361359 
   19.104924     23.38885    15.050698      15.3607 
  -7.6075284    23.509294    15.049275    15.362074 
  0.53856743    23.629433    15.045148    15.364293 
   13.694791    23.749594    15.042107     15.36673 
  -21.320427    23.870303    15.038697    15.369062 
    7.723177    23.990159    15.034828    15.374547 
  -5.4395222    24.110324    15.030329    15.381128 
  -26.759246    24.230271    15.025642    15.385341 
   52.425019    24.349148    15.021576    15.390929 
  -50.607752    24.470122    15.019698    15.397587 
   9.0055833    24.589071    15.017634    15.405687 
  -2.6634042    24.708381    15.015802    15.410503 
   55.986309    24.827584    15.010734    15.409601 
  -8.0667577    24.949027    15.006283    15.404333 
  -59.247167    25.070147    15.002373    15.400682 
  -72.620249    25.188897    14.998525    15.399511 
  -44.156556    25.304743    14.994814    15.397957 
  -31.429717    25.418822    14.990175    15.394863 
  -25.153481    25.531644    14.987091    15.392001 
  -80.130094    25.643459    14.984272    15.389499 
  -1.4296416     25.75207    14.982707    15.388273 
  -20.289523    25.860623    14.980768    15.389792 
   -11.42996    25.968365    14.980281    15.390257 
   -67.68362     26.07565    14.982231    15.391766 
  -59.901023    26.180227    14.983672    15.394204 
   8.6587396    26.282408    14.985812    15.395637 
  -6.9153902    26.384936    14.990835    15.397578 
   20.901696    26.487186    14.997159    15.399785 
   33.135361    26.590273    15.001763    15.402973 
   36.351576    26.694686    14.998785    15.406483 
   21.790905    26.800552    14.990909    15.410984 
  -12.095789     26.90729     14.98104    15.415572 
  -33.339022    27.013545    14.971626    15.421369 
   27.922803    27.118465    14.963198    15.427514 
   3.1332246    27.224503    14.952725    15.432691 
   -44.48498    27.330666    14.941891    15.439587 
  -51.864755     27.43505    14.928517    15.447869 
   9.7498662    27.537358    14.915128    15.454961 
   56.458427    27.640057    14.907413    15.461453 
  -44.691457    27.745015    14.904348    15.469989 
  -2.2858523    27.848184    14.903043    15.478598 
  -60.012769    27.951263    14.900831    15.485586 
  -7.4992939     28.05194    14.898957    15.493348 
  -2.3464751    28.152318     14.89604    15.503199 
  -47.726374    28.252602    14.894217    15.515971 
   31.007193    28.350977    14.890893    15.528854 
   67.300462    28.450592    14.888904    15.537687 
   -91.01475    28.552899    14.886926    15.540452 
  -61.914988    28.651565    14.884526    15.543101 
  -174.89525    28.747755    14.881482    15.547577 
  -550.05179    28.836949    14.881931    15.553645 
  -290.53235    28.904141    14.890357    15.545737 
  -32.649701    28.959712    14.896568    15.533513 
  -37.164789    29.013977    14.901021    15.522062 
  -37.685664    29.066755    14.900099    15.511954 
  -91.300755    29.118026    14.894281    15.500513 
  -124.40589    29.165645    14.886081    15.488105 
  -113.28913    29.208287    14.878193    15.475054 
  -44.689065    29.246398    14.872279    15.459838 
  -84.442814    29.282721    14.870257    15.443908 
   32.552892    29.315667    14.872547    15.430054 
   204.25086    29.349915    14.877563    15.419942 
   138.19492    29.392333    14.884131    15.414122 
  -111.49559    29.440278    14.892744     15.41146 
  -141.24262    29.483764    14.907011    15.407141 
  -191.32942      29.5216    14.923081    15.403144 
  -120.90984    29.551783     14.93896     15.39956 
  -116.58195    29.577129     14.95257    15.394391 
   28.686614    29.597812    14.957199    15.385427 
   160.78079    29.619643    14.959235    15.373726 
   108.74698    29.647905    14.959338    15.362549 
  -23.998363    29.680517    14.957274    15.354792 
   165.42491    29.712169    14.954464    15.348562 
   1500.5305    29.750438    14.954384    15.345407 
  -92.927693    29.848728    15.844337    15.327128 
  -85.235691    29.943301    16.715343    15.309022 
  -105.07463    30.034464    17.565829     15.29217 
  -189.34019    30.121425    18.396873    15.276727 
  -465.53531    30.200812    19.205077    15.266868 
  -33.934355    30.261577    19.975235    15.269702 
   53.178756    30.320985    20.725687     15.27429 
   4.6926466    30.382521    21.461761    15.284221 
ERROR on proc 1: Bond atoms 6 7 missing on proc 1 at step 150 (../neigh_bond.cpp:65)
--------------------------------------------------------------------------
MPI_ABORT was invoked on rank 1 in communicator MPI_COMM_WORLD 
with errorcode 1.

NOTE: invoking MPI_ABORT causes Open MPI to kill all MPI processes.
You may or may not see output from other processes, depending on
exactly when Open MPI kills them.
--------------------------------------------------------------------------
ERROR on proc 3: Bond atoms 2 3 missing on proc 3 at step 150 (../neigh_bond.cpp:65)
--------------------------------------------------------------------------
mpirun has exited due to process rank 1 with PID 7759 on
node n0097.savio2 exiting improperly. There are two reasons this could occur:

1. this process did not call "init" before exiting, but others in
the job did. This can cause a job to hang indefinitely while it waits
for all processes to call "init". By rule, if one process calls "init",
then ALL processes must call "init" prior to termination.

2. this process called "init", but exited without calling "finalize".
By rule, all processes that call "init" MUST call "finalize" prior to
exiting or it will be considered an "abnormal termination"

This may have caused other processes in the application to be
terminated by signals sent by mpirun (as reported here).
--------------------------------------------------------------------------
[n0097.savio2:07757] 1 more process has sent help message help-mpi-api.txt / mpi-abort
[n0097.savio2:07757] Set MCA parameter "orte_base_help_aggregate" to 0 to see all help / error messages
