LAMMPS (17 Nov 2016)
Reading data file ...
  orthogonal box = (0 0 0) to (60 30 30)
  2 by 1 by 2 MPI processor grid
  reading atoms ...
  8887 atoms
  scanning bonds ...
  1 = max bonds/atom
  reading bonds ...
  9 bonds
Finding 1-2 1-3 1-4 neighbors ...
 Special bond factors lj:   0          0          0         
 Special bond factors coul: 0          0          0         
  2 = max # of 1-2 neighbors
  2 = max # of 1-3 neighbors
  4 = max # of 1-4 neighbors
  6 = max # of special neighbors
10 atoms in group polymer
1 atoms in group first
Neighbor list info ...
  1 neighbor list requests
  update every 1 steps, delay 10 steps, check yes
  max neighbors/atom: 2000, page size: 100000
  master list distance cutoff = 3.3
  ghost atom cutoff = 3.3
  binsize = 1.65, bins = 37 19 19
Setting up Verlet run ...
  Unit style    : lj
  Current step  : 0
  Time step     : 0.02
Memory usage per processor = 4.13948 Mbytes
v_ftotal c_com[1] c_com[2] c_com[3] 
   140.78628         17.5           15           15 
   132.81381    17.503641    15.003346    15.011499 
   78.601264    17.512595    15.006083    15.020866 
   54.805726    17.524694    15.006185    15.027397 
   148.36619    17.538984    15.007341    15.032374 
    126.7842    17.559209    15.008669    15.038841 
    130.8317    17.584505    15.010315    15.048111 
   109.50733    17.615035    15.010689    15.057475 
   125.20248    17.649944    15.010864    15.067048 
   68.064674    17.689862    15.012698     15.07449 
   59.309272    17.732503    15.015775    15.081828 
    64.96229    17.777516    15.019307    15.089855 
   134.76687    17.825127    15.024237    15.096791 
   59.775829    17.878129    15.028239    15.104477 
   74.075856    17.933523     15.03212    15.113245 
    92.74919    17.991879    15.037267     15.11966 
   31.395315    18.053945    15.041154     15.12773 
   95.882688    18.117267    15.044483    15.134224 
   69.655237    18.184424    15.049206    15.140276 
   90.237619    18.254367    15.052223    15.146517 
   58.408828     18.32792    15.053531    15.154819 
   57.457483     18.40381     15.05356     15.16178 
   110.72358    18.481997    15.054975    15.169141 
   16.830304    18.564614    15.055015    15.178581 
   55.861413    18.647904    15.054556    15.187532 
   22.381324    18.733428    15.053169     15.19604 
   41.582083    18.819847    15.051539    15.204666 
   13.810932     18.90793    15.052619    15.211873 
   36.401411    18.996565    15.056661    15.219907 
   30.289311    19.086656    15.057571     15.22805 
   27.331542    19.177959    15.058735    15.235151 
   86.853408    19.270355    15.060011    15.241729 
   75.216521    19.366226    15.059583    15.248376 
   16.549586    19.465104    15.057163    15.257564 
   94.689673    19.564645    15.054056    15.265715 
   15.202364    19.667974    15.051486    15.273891 
    32.77372     19.77191    15.049942    15.280839 
   38.967091    19.877158    15.050517    15.287752 
   18.033904    19.983964    15.054076    15.293397 
   32.552165    20.091492    15.057894    15.299914 
  -1.7030268    20.200321    15.061501     15.30469 
   35.803864    20.309083    15.063544    15.308413 
   70.808213    20.419276    15.065967    15.312666 
    7.254902    20.532302    15.068499    15.317019 
   56.029247    20.645618    15.072361    15.320851 
  -6.0603396    20.761176    15.076369    15.323851 
   49.092192    20.876491    15.078882     15.32551 
    42.62917    20.993769    15.080316    15.328443 
 -0.54647554    21.112753    15.081771     15.33002 
   1.9489672    21.231715    15.082289    15.331663 
   2.0333261    21.350755    15.081223    15.334367 
    23.73486    21.469876    15.080263    15.337356 
   20.028709    21.589947    15.079454    15.339894 
   39.974819    21.710819    15.078368    15.342677 
   79.828143    21.833289    15.076593    15.345837 
   8.1922441    21.958953    15.073882    15.348197 
    3.795868    22.084945    15.071016    15.351703 
   6.0927944    22.211088    15.069829    15.356351 
   48.596435    22.337475    15.067613     15.36021 
  -11.017374    22.465806    15.063575    15.363351 
   6.0943604    22.593697    15.059609    15.365562 
  -25.713918    22.721831    15.056387    15.367132 
   34.126003    22.848936    15.055316    15.364892 
  -31.601152    22.977407    15.054114    15.362818 
  -1.5431453    23.104613     15.05229    15.361734 
  -40.252677    23.231758     15.05107    15.360903 
  -42.474528    23.357293    15.050969    15.359695 
   14.665044    23.481128    15.049659    15.357893 
   21.365814    23.605551    15.049784    15.357347 
  -5.2074425    23.730828    15.048369    15.358942 
   3.9711993    23.855896    15.044276    15.361528 
   17.154942    23.981124    15.041294    15.364531 
  -18.292013    24.107037    15.037987    15.367691 
   9.6591371    24.232219    15.034282    15.374337 
  -5.6848665    24.357788    15.030007    15.382481 
  -30.853211    24.483129    15.025588    15.388614 
   47.263227    24.607235    15.021736    15.395996 
  -34.357191    24.733233    15.019594    15.402506 
   41.667907    24.857856    15.016029    15.405749 
  -22.697132    24.984146     15.01224    15.404735 
  -29.829109    25.109527    15.006285    15.403578 
   -8.502761    25.233716    15.001993    15.399673 
  -89.022887    25.357565    14.997682    15.393618 
  -80.805931    25.477853    14.991056     15.39024 
  -21.856733    25.594908    14.985267    15.386414 
   -97.91566    25.711089    14.980736    15.383037 
  -10.864549    25.823354    14.976794    15.379304 
  -35.158652    25.935184    14.973502    15.376479 
  -32.526706    26.045607    14.970775    15.375822 
  -54.243891     26.15473    14.969503    15.376825 
   30.931132    26.261683    14.968058    15.379716 
   22.817486    26.369873    14.967585    15.383104 
   11.043049    26.478976     14.96929    15.386058 
  -25.393128     26.58852    14.972788    15.389099 
   75.831522    26.697049    14.972317    15.392221 
    15.53791    26.808611    14.962375    15.396559 
  -43.868903    26.920794    14.947915    15.399602 
  -32.008668    27.031223    14.929278    15.406426 
 -0.88089422    27.140372    14.910742    15.415893 
  -91.090642    27.249485     14.89233    15.426352 
  -129.46574    27.354954    14.874402    15.439457 
  -80.282582    27.455245     14.85833    15.446755 
  -54.892445    27.552325    14.846274    15.448255 
  -20.003649    27.647209    14.834931    15.448896 
  -73.386397    27.741293    14.820219    15.450774 
   -25.47134    27.832441    14.803634    15.453511 
  0.35842191    27.922571    14.785752    15.456355 
  -59.913178    28.012714    14.768279    15.461865 
  -36.096636    28.100462    14.751466    15.466914 
  -8.0505222    28.186765    14.734369    15.470047 
   7.6468206    28.272747    14.717218    15.472542 
  -47.386711    28.359034    14.698785    15.477662 
  -46.093893    28.443426    14.675568     15.48431 
  -57.900722    28.525974    14.650119    15.490334 
   58.297184    28.606206     14.62879    15.497216 
  -43.900505     28.68877    14.625982    15.500982 
  -144.77263    28.769578    14.626225    15.508278 
   -41.74603    28.844595    14.623039    15.517898 
  -61.989143    28.917942    14.619451    15.530126 
  -99.861973    28.988809    14.613171    15.543313 
  -103.97523    29.055682    14.604641    15.554308 
  -331.34603    29.118397    14.592761    15.563245 
  -172.83744    29.167857    14.571644    15.562132 
  -149.69419    29.210404    14.548942    15.555582 
   32.422206    29.246963    14.529823    15.547977 
   219.12961    29.284818    14.516151    15.538089 
   246.60255    29.331439    14.509069    15.528763 
   47.784821    29.387925    14.505399    15.524576 
  -26.850352    29.446321    14.500834    15.523885 
  -95.434209    29.503644    14.493247    15.523228 
  -3.3824182    29.557149    14.484512    15.521252 
  -58.265934    29.610519    14.478756    15.510829 
  -133.29911    29.661558    14.474464     15.49459 
  -114.81448    29.707265    14.471672     15.47682 
  -50.456285     29.74838    14.473508    15.458642 
  -39.614242    29.787477    14.480158    15.439918 
  -56.499491    29.824988    14.489081    15.422912 
   24.256978     29.86024      14.5028    15.407317 
  -84.734509    29.896462     14.51784    15.394447 
  -43.337466    29.929295    14.532754    15.383748 
   54.925808    29.960395    14.544349    15.373723 
  -1426738.9    29.993691    14.549918    15.359838 
   29110.743    -27.04257     66.03266   -3.2087378 
   29004.354   -82.914402    116.46899   -21.386853 
   28917.181   -137.62606    165.85395   -39.187657 
   28930.517   -191.18103    214.18907   -56.609478 
   20611.041   -243.57878    261.47505   -73.654561 
   29183.307   -295.15209    307.85973   -90.234132 
   28939.303   -345.55806    353.20534   -106.44548 
   24923.709   -394.80647    397.50903   -122.28577 
ERROR on proc 3: Bond atoms 5 6 missing on proc 3 at step 150 (../neigh_bond.cpp:65)
--------------------------------------------------------------------------
MPI_ABORT was invoked on rank 3 in communicator MPI_COMM_WORLD 
with errorcode 1.

NOTE: invoking MPI_ABORT causes Open MPI to kill all MPI processes.
You may or may not see output from other processes, depending on
exactly when Open MPI kills them.
--------------------------------------------------------------------------
--------------------------------------------------------------------------
mpirun has exited due to process rank 3 with PID 23570 on
node n0161.savio2 exiting improperly. There are two reasons this could occur:

1. this process did not call "init" before exiting, but others in
the job did. This can cause a job to hang indefinitely while it waits
for all processes to call "init". By rule, if one process calls "init",
then ALL processes must call "init" prior to termination.

2. this process called "init", but exited without calling "finalize".
By rule, all processes that call "init" MUST call "finalize" prior to
exiting or it will be considered an "abnormal termination"

This may have caused other processes in the application to be
terminated by signals sent by mpirun (as reported here).
--------------------------------------------------------------------------
