LAMMPS (17 Nov 2016)
Reading data file ...
  orthogonal box = (0 0 0) to (60 30 30)
  2 by 1 by 2 MPI processor grid
  reading atoms ...
  8887 atoms
  scanning bonds ...
  1 = max bonds/atom
  reading bonds ...
  9 bonds
Finding 1-2 1-3 1-4 neighbors ...
 Special bond factors lj:   0          0          0         
 Special bond factors coul: 0          0          0         
  2 = max # of 1-2 neighbors
  2 = max # of 1-3 neighbors
  4 = max # of 1-4 neighbors
  6 = max # of special neighbors
10 atoms in group polymer
1 atoms in group first
Neighbor list info ...
  1 neighbor list requests
  update every 1 steps, delay 10 steps, check yes
  max neighbors/atom: 2000, page size: 100000
  master list distance cutoff = 3.3
  ghost atom cutoff = 3.3
  binsize = 1.65, bins = 37 19 19
Setting up Verlet run ...
  Unit style    : lj
  Current step  : 0
  Time step     : 0.01
Memory usage per processor = 4.13948 Mbytes
v_ftotal c_com[1] c_com[2] c_com[3] 
   135.98147         17.5           15           15 
   126.05838    17.501093    15.001755    15.005816 
   51.989296    17.503446    15.003302    15.010902 
   20.182961    17.506319    15.003921    15.015004 
   154.01709    17.509394    15.004909    15.018566 
   126.39166     17.51401    15.005956    15.022658 
    134.7367    17.519889    15.007117    15.027751 
   107.29206    17.527115    15.007828    15.032899 
   131.92344    17.535415    15.008467    15.038143 
   53.808711    17.545034    15.009688    15.042657 
     43.3152     17.55519    15.011352    15.047153 
   53.084777     17.56578    15.013183     15.05191 
     153.672    17.576901    15.015518    15.056302 
   50.516649    17.589558    15.017539    15.060978 
   72.577174    17.602721     15.01953    15.066058 
   101.04101     17.61661     15.02198    15.070333 
   16.615142    17.631508    15.024002    15.075211 
   109.28069    17.646573    15.025839    15.079558 
   74.596739    17.662731     15.02818    15.083769 
   105.74884    17.679635    15.029934    15.088066 
   63.091444    17.697596    15.031095    15.093113 
    63.65441    17.716188    15.031809    15.097714 
   140.88601    17.735417    15.033013    15.102482 
   10.785613    17.756055    15.033736    15.108012 
    67.32243      17.7768    15.034283    15.113404 
   21.876395    17.798219    15.034501    15.118675 
   50.450294    17.819856    15.034628     15.12402 
   12.871698    17.841998    15.035707      15.1289 
   46.111996    17.864269    15.037837    15.134101 
    39.08325    17.887001    15.038875    15.139376 
   48.245058    17.910123    15.040006    15.144318 
   89.367538    17.933728    15.040933    15.148776 
   125.51945    17.958227    15.041236    15.153593 
   35.401033    17.983981    15.040904    15.158725 
   110.85421    18.010089    15.040139    15.164511 
   90.105737    18.037305    15.039931    15.169927 
   6.4962527    18.065423    15.039941    15.175697 
    62.07993    18.093605     15.04017     15.18068 
   64.832481    18.122408    15.041267    15.185921 
   62.316307     18.15186    15.042818    15.191159 
    7.273395    18.181935    15.045216    15.195895 
   87.547483    18.212082    15.047086    15.200304 
   59.356745    18.243105    15.049487    15.204336 
   77.547019    18.274722    15.051712    15.207849 
   95.335665    18.307114    15.054156    15.211768 
   57.575513    18.340459    15.056779    15.215002 
  -19.009319     18.37438    15.059257    15.218358 
   79.712771    18.408111    15.061444    15.221727 
   87.939475     18.44264    15.062885    15.225058 
   112.43608    18.478047    15.064798    15.228447 
   11.663625    18.514579    15.066282    15.231273 
   62.805656    18.551228    15.067611    15.235019 
   17.388747    18.588504    15.068882    15.239057 
   86.267651    18.625955    15.069338    15.242851 
   43.699151    18.664268    15.069811    15.246703 
   113.57698    18.703018    15.069659    15.250539 
     51.4999    18.742904    15.069486    15.254434 
   36.393408    18.783305    15.069272    15.259103 
   154.96416     18.82407    15.069083    15.264139 
   8.0474949    18.866384    15.068292    15.268535 
   71.047294    18.908779    15.067625     15.27265 
    -33.5022    18.951885    15.067141    15.276347 
   49.895697    18.994655    15.067154     15.27921 
   40.046531    19.037925    15.067169    15.281674 
   39.070132    19.081594    15.067067    15.283976 
   55.435368    19.125655    15.067075    15.286626 
   19.205466     19.17027    15.067326    15.289241 
  -18.028878    19.215077    15.067406    15.292235 
  -2.6950207    19.259704    15.067566    15.295051 
   50.970603    19.304303    15.068145    15.297889 
   57.710367    19.349413    15.068238    15.301622 
   35.577664    19.395099    15.067488    15.305723 
   62.945508    19.441142    15.065751     15.30993 
   32.105122    19.487813    15.063274    15.312995 
  -5.1320496    19.534806    15.061304    15.317059 
   65.928162    19.581748     15.05975    15.320823 
   4.9071803    19.629349    15.058919    15.323909 
  -20.864325    19.676998    15.057877    15.327278 
   42.002902     19.72444    15.057043    15.331211 
   24.363279    19.772301    15.056614    15.334685 
   77.015671    19.820406    15.055404    15.337887 
   26.234916    19.869281     15.05452    15.340318 
   -20.90407    19.918418    15.053685    15.343007 
  -33.909798    19.967346    15.052687    15.346248 
  -1.5584683    20.015936    15.051542    15.349318 
   10.955581    20.064509    15.049814    15.351863 
   21.351487    20.113193      15.0483      15.3543 
  -51.505958    20.162089    15.046502    15.356494 
   62.781536    20.210471    15.044755    15.358696 
   38.061912     20.25948    15.042507    15.361459 
   44.830125    20.308871    15.040455    15.363556 
  -20.609295    20.358709    15.038795    15.366062 
   2.2012145    20.408341    15.036873     15.36877 
   32.309898    20.457996    15.035959    15.371765 
   45.562105    20.507973    15.035411    15.374631 
   104.02646    20.558406    15.034287     15.37859 
    15.87199    20.609879    15.032744    15.381769 
   82.153656    20.661511    15.030863    15.384704 
   98.466383    20.713965    15.028369    15.387859 
   49.237699    20.767403    15.025818    15.391121 
   123.72949    20.821334     15.02316    15.394379 
   22.591737    20.876502    15.020381    15.397752 
   32.464526    20.931896    15.017246    15.401443 
   130.22016    20.987614    15.013022    15.405447 
   76.746137    21.044635    15.008535     15.41021 
   117.35933    21.102423    15.003841    15.414459 
  -30.837801    21.161385    14.998644     15.41838 
    3.500878    21.220038    14.993205    15.422839 
  -13.848657    21.278726    14.988383    15.427924 
   12.293431    21.337276    14.984121    15.433089 
   55.199595    21.395949    14.979807    15.437759 
   83.749197    21.455174    14.974811    15.442201 
  -33.939948    21.515236    14.969643    15.446564 
   20.325025    21.574959    14.964551    15.450176 
   7.8313578    21.634885    14.959449    15.453279 
  -62.374894    21.694889    14.954834    15.456402 
   83.943443     21.75427    14.949564    15.459894 
  0.10156305     21.81449    14.943933    15.462927 
   20.621239    21.874711    14.938287    15.464962 
   95.110704    21.935139    14.932522    15.466252 
  -15.274146    21.996517    14.926597    15.467315 
  -78.428251    22.057743    14.921017    15.468413 
  -3.7629322    22.118184    14.915747    15.469088 
   19.535625    22.178588    14.910532    15.469759 
   8.0477242    22.239187    14.906007    15.471224 
   65.352135    22.299867    14.901694    15.472382 
  0.41414498      22.3612    14.897107    15.473846 
  -52.161552    22.422538    14.892008    15.475909 
   16.031596    22.483353    14.886722    15.478364 
  -5.8415856    22.544329    14.881507    15.480248 
  -18.021092    22.605247    14.875594    15.481882 
   30.390113    22.665984    14.869986    15.483222 
   3.3314823    22.727026    14.864294    15.484142 
  -8.0631229      22.7881     14.85923    15.485184 
  -54.455688    22.849094    14.853753     15.48533 
    -52.6891    22.909544    14.848782    15.486011 
   79.413857    22.969466    14.843417    15.486167 
    67.62024    23.030183    14.838318    15.485833 
  -56.551866    23.091576    14.833189    15.485645 
  -28.966556    23.152403    14.828011    15.485633 
   -72.50225    23.212941       14.823    15.485027 
  -13.092629    23.272753    14.818388     15.48441 
   3.5498847    23.332435    14.813843    15.483808 
  -105.22604    23.392152    14.809289     15.48332 
   59.881491    23.450817    14.804993    15.482548 
   24.158359    23.510081    14.800987    15.481654 
   -58.99816    23.569586    14.797038    15.480705 
  -12.299653    23.628502    14.793307    15.478765 
   55.488362    23.687294    14.790133    15.477388 
   11.740449    23.746641    14.787396    15.476253 
  -15.855524    23.806106    14.784549    15.475538 
  -71.219944    23.865412    14.782098    15.475853 
  -60.449782    23.924006    14.779404     15.47619 
   23.052085    23.981996    14.776291    15.476498 
   43.342284    24.040216    14.773167    15.476789 
    86.23709    24.098869    14.769941    15.477955 
   20.067928    24.158385    14.766858    15.479024 
  -51.261795    24.218101    14.764522    15.480001 
  -23.342423    24.277305    14.761972    15.480621 
  -54.793603    24.336275    14.759894    15.480724 
  -13.928727    24.394698    14.758197    15.480296 
  -43.408539    24.452981    14.756033    15.479706 
  -54.054321     24.51083    14.754273    15.479384 
  -53.983366    24.568138    14.752223    15.479502 
  -6.3928681    24.624907    14.750269    15.479767 
  -21.558572    24.681612    14.748007    15.480645 
  -95.425508    24.738101    14.746014    15.480904 
   80.664177    24.793636    14.743681    15.481457 
    43.65186    24.849978    14.741531    15.482213 
  -14.581767    24.906756      14.7392    15.482313 
  -10.667102    24.963388    14.737231    15.482611 
   32.209427    25.019913    14.735408    15.482808 
   28.659951    25.076761    14.733895    15.482812 
   3.4154501    25.133895    14.732068    15.483195 
   45.950653    25.191064    14.730526    15.484247 
  -10.023721    25.248692    14.728673    15.485637 
   -38.62884     25.30622    14.726586    15.487859 
  -110.11095    25.363361    14.724669    15.490998 
  -30.355682    25.419401    14.723424    15.493639 
  -35.796562    25.475138    14.722475    15.496345 
   55.732371    25.530517    14.721735    15.497909 
  -33.396752    25.586453    14.721392    15.497977 
  -108.38562    25.642055    14.723394    15.495937 
  -59.015879    25.696573    14.728041    15.491787 
  -72.634294    25.750502     14.73413    15.486555 
  -32.846086    25.803703    14.739257    15.481005 
  -20.822085    25.856577    14.744107    15.476018 
  -11.997847    25.909242    14.748751    15.471108 
   65.017026    25.961787    14.751855    15.466079 
  -52.673579    26.014982    14.754677    15.462418 
  -61.819694    26.067651    14.757482    15.459786 
  -25.979117    26.119701    14.760169    15.457478 
   19.048144    26.171492    14.762578    15.454881 
  -1.7631721    26.223473    14.764703    15.453144 
  -93.378032    26.275436    14.766014    15.452856 
  -58.194312    26.326466     14.76631    15.453216 
    22.38557    26.376914    14.765562      15.4541 
  -30.567514    26.427585    14.763904    15.455444 
  -45.568957    26.477951    14.762031     15.45703 
   36.851667    26.527861    14.760817    15.458737 
  -104.56051     26.57814    14.761028    15.460808 
  -115.38473    26.627373    14.764324    15.463357 
  -108.39083    26.675452    14.769648    15.464991 
   -58.48777    26.722448     14.77673     15.46546 
  -25.329968    26.768858    14.784747    15.465113 
   24.913842    26.815015    14.793827    15.464675 
  -57.159955    26.861422    14.803548    15.464401 
   10.260772    26.907256    14.815016    15.464513 
  -17.624202    26.953194    14.828195    15.465915 
   4.7168479    26.998955     14.84273    15.468119 
   -125.1085    27.044763    14.856983    15.470712 
  -33.299706     27.08932     14.87173    15.473683 
   27.761509    27.133544    14.886069    15.477382 
  -58.119535    27.178046    14.899345    15.482431 
  -41.926515    27.221967    14.912537    15.488007 
  -44.419037    27.265468    14.924771     15.49317 
  -57.486737    27.308525    14.935253    15.498521 
  -79.483868    27.351007    14.944212    15.502735 
  -170.39535    27.392695    14.950525    15.504411 
  -160.20992    27.432678    14.955501    15.503158 
  -255.52244     27.47106    14.960176    15.499387 
  -132.90921    27.506886    14.966474     15.49528 
   -206.1138    27.541383    14.975176    15.491394 
  -69.061693    27.573819    14.985009    15.488117 
  -46.932913    27.605564    14.995939    15.486346 
   1.7279194     27.63684    15.006564    15.486043 
  -2.3770106    27.668133    15.017618    15.487582 
  -20.978484    27.699403    15.028672     15.49164 
  -99.516919    27.730462    15.040365    15.497404 
  -65.252655    27.760527    15.051533    15.503368 
   32.803392    27.789939    15.062035    15.509341 
   123.86512    27.819679    15.071643    15.514411 
   89.295652    27.850658    15.078799    15.518091 
   46.250425    27.882529    15.084525    15.519416 
  -71.760063    27.914863    15.089077     15.52052 
    20.74522     27.94648    15.093221    15.521353 
  -102.93223    27.978304    15.097065    15.523455 
  -87.254051    28.009099    15.101228    15.526537 
  -48.193794    28.039021    15.105372    15.530043 
  -62.675272    28.068461    15.109521    15.534238 
  -42.678146    28.097274    15.113198    15.538707 
  -49.422526    28.125661    15.116465    15.543497 
   13.345785    28.153553    15.119165    15.547984 
  -86.856293    28.181579    15.121185    15.553555 
  -117.75058    28.208737    15.121708    15.559865 
  -120.15405    28.234717    15.120269    15.565746 
   -194.4299    28.259495    15.115901    15.571584 
  -162.29944    28.282329    15.109151    15.577467 
  -111.65481     28.30354    15.102307    15.583537 
  -89.974831    28.323634    15.094007    15.590029 
  -63.474433    28.342829    15.084885    15.597141 
  -6.1148277    28.361389    15.075733    15.605016 
   21.556914    28.379888    15.066793    15.612253 
  -25.969823    28.398602    15.057665    15.619353 
  -82.567941    28.417057    15.048802    15.625873 
  -150.67113    28.434686     15.04272    15.631232 
  -157.71021    28.450808    15.039331    15.634585 
  -179.70898    28.465353    15.038952    15.634917 
  -139.00169    28.478101    15.041066    15.631323 
  -116.13057    28.489459    15.044598    15.623895 
   74.083623    28.499656    15.049847    15.615272 
  -59.816744    28.510594    15.056204    15.607069 
   38.722149    28.520933    15.062208    15.599809 
   200.63579     28.53166    15.068786    15.592948 
   236.61062    28.544393    15.075397    15.586927 
   141.27287    28.559492    15.081943    15.580784 
   43.952186    28.576004    15.088434    15.575033 
    49.74609    28.592955    15.094213    15.569534 
  -93.302812    28.610404    15.100204    15.564471 
  -171.04759     28.62692    15.105643    15.560211 
  -227.81652    28.641725    15.110416    15.555506 
  -265.01942    28.654252    15.113885     15.55046 
  -216.04132    28.664129    15.115981    15.545198 
  -33.314619    28.671846     15.11681    15.539875 
  -31.164584    28.679229    15.116917    15.534218 
  -17.804535    28.686301    15.116725    15.529603 
   34.424372    28.693195    15.115238    15.526039 
   48.381451    28.700433    15.113102    15.523918 
  -28.970532    28.708154    15.109922    15.521983 
  -110.24513    28.715586    15.105634    15.519739 
  -114.34809    28.721916    15.099547    15.517359 
  -201.49121    28.727102     15.09237    15.515658 
  -227.48418    28.730273    15.085469    15.513177 
  -149.96109     28.73117    15.078758    15.510418 
  -13.812488    28.730567    15.071985    15.506795 
   29.418827    28.729825    15.064727    15.503008 
   118.09768    28.729378    15.057136     15.49926 
    53.78177    28.730112     15.05017    15.495375 
   277.91128    28.731384    15.043461    15.492405 
   225.61404    28.735434    15.036673    15.489848 
   206.24536    28.741741    15.030079    15.487007 
   99.517951    28.750111    15.024207    15.484719 
   2.1118897    28.759475    15.018726    15.481701 
  -88.343886    28.768861    15.013748    15.478193 
  -53.197594    28.777363    15.009437    15.474299 
  -100.95715    28.785333    15.005437    15.470329 
  -108.07584    28.792294    15.001712    15.466544 
   -121.1371    28.798174    14.998491    15.462048 
  -194.60834    28.802842    14.995524    15.456669 
   -236.4082    28.805565    14.991608    15.450459 
  -139.15355    28.805923    14.987458    15.443879 
  -128.98274     28.80489     14.98251    15.436664 
  -138.44519    28.802567    14.977534    15.429239 
  -127.12517    28.798859    14.972067    15.422726 
  -56.459001    28.793881    14.966697    15.416249 
  -49.716663    28.788337    14.961106    15.409338 
  -42.649622    28.782297    14.955415    15.403572 
  -21.782274     28.77583    14.950525    15.397559 
  -13.406149    28.769145    14.947143    15.391846 
   121.72555    28.762326    14.945717    15.387895 
   197.72533    28.756725    14.945875    15.387099 
   301.57345      28.7531    14.946205    15.390525 
   344.75893    28.752492    14.946565    15.396975 
   187.72587    28.755331    14.945743    15.405967 
   148.50723    28.760047     14.94238    15.415725 
    -61.1776    28.766248    14.936663    15.424703 
   13.376823    28.771838    14.928934    15.432605 
  -39.480365    28.777561    14.920181     15.44026 
  -13.807847     28.78289    14.911901    15.448303 
  -40.360853     28.78808    14.903887    15.456246 
   28.127402    28.792867    14.896134    15.465019 
  -22.896645    28.797935    14.888449    15.474303 
   59.697004    28.802774    14.880812    15.483231 
  -32.156052     28.80821    14.874136     15.49238 
   15.898349    28.813325    14.868119    15.501398 
  -117.67248    28.818598    14.862105     15.50928 
   9.4763566    28.822695    14.856636    15.516554 
  -15.413357    28.826887    14.851332     15.52431 
   -21.30795    28.830924    14.846355    15.531777 
  -59.251279    28.834748     14.84061    15.539022 
  -198.33849     28.83798    14.834018    15.545283 
  -64.314341    28.839229     14.82682    15.551074 
   72.539548    28.839834    14.819547    15.556858 
   287.93768    28.841165    14.812521    15.563701 
   201.45109    28.845375    14.806232     15.57218 
   142.37398    28.851599    14.801357    15.581828 
  -2.9874885    28.859248    14.797042    15.592863 
  -100.06617    28.866866    14.793678    15.605174 
  -7.3703086    28.873484     14.79164    15.618808 
  -28.659889    28.880028     14.78948    15.633691 
  -101.15764    28.886285    14.786646    15.648679 
  -7.6286215    28.891531    14.783864    15.662896 
  -53.044913    28.896701    14.781508    15.676349 
  -37.383835     28.90134    14.778805    15.688765 
   77.560608    28.905605    14.776716    15.700332 
  -105.37459    28.910646    14.774008     15.71149 
  -37.621686    28.914634    14.771941    15.721874 
  -184.50524    28.918245    14.768316    15.730179 
  -185.65354     28.92001    14.763026    15.735907 
  -296.03342     28.91992    14.755262    15.739434 
  -185.82054    28.916869    14.745029    15.741074 
  -66.889111     28.91196    14.733439    15.742167 
  -5.2328797    28.906382    14.720988    15.742505 
  -11.998472    28.900751    14.708645    15.742915 
  -65.998554    28.895001    14.696564    15.743367 
  -32.778487    28.888591    14.684012    15.744357 
  -89.540686    28.881853    14.672349    15.746017 
   126.73137    28.874219    14.661647    15.748354 
   6.3990517    28.867853    14.650842    15.751525 
   83.467643    28.861551    14.640066    15.756054 
   47.652125    28.856083    14.629694    15.761606 
    21.10799    28.851092    14.621001    15.768293 
   33.825264    28.846312    14.613091    15.775653 
  -73.183566     28.84187    14.606767     15.78371 
   35.899327    28.836697    14.601504    15.792007 
   48.801514    28.831882    14.596978    15.800839 
   72.073088    28.827556    14.591977    15.809024 
   82.227022     28.82395    14.587669    15.816079 
  -23.311543    28.821166    14.582932    15.822855 
  -69.022308     28.81815    14.577861    15.829805 
   77.762016    28.814443    14.572731    15.836337 
  -24.337186    28.811514    14.567188    15.842913 
   18.841668    28.808341    14.561429    15.849799 
   13.385124    28.805357    14.555342    15.856289 
   43.020702    28.802507    14.548595    15.862831 
   49.477478    28.800086    14.542079    15.869253 
  -12.864714    28.798161    14.535916    15.876327 
  -71.894806    28.796107    14.529686    15.884224 
  -30.634473    28.793334    14.523686    15.891861 
   15.589227    28.790255    14.519174    15.898845 
   43.483406    28.787331      14.5162    15.906401 
   98.340053    28.784843    14.513671    15.913561 
   140.22146    28.783338    14.511303     15.92025 
    118.9547    28.783235    14.509514    15.926328 
   -35.51409    28.784321    14.507551    15.932501 
   51.108216    28.785053     14.50534    15.938496 
   102.53418    28.786295    14.503108    15.945162 
   47.574932    28.788563    14.501049     15.95172 
   71.827675    28.791307    14.499939    15.957772 
   1.6998783    28.794769    14.499343    15.962924 
  -13.670048    28.798248    14.499777    15.967381 
   10.102195     28.80159    14.500335     15.97101 
   58.486209    28.805033    14.501103    15.974354 
   79.183684    28.809061    14.502285    15.978006 
   82.811573    28.813881    14.502044    15.981283 
   123.57679    28.819529    14.502337    15.985313 
   67.506799    28.826413     14.50254    15.989427 
  -97.116476    28.833972    14.502441    15.993625 
   -86.92847    28.840559    14.502849    15.998633 
   -72.95292    28.846278      14.5045    16.004387 
   -72.88135    28.851267     14.50687    16.011567 
  -67.608873    28.855527    14.509951    16.018627 
   4.4470699    28.859111    14.513478     16.02669 
   55.430488    28.862739    14.517381    16.035503 
  -24.499688    28.866922      14.5207    16.043443 
  -129.48212     28.87086    14.523538    16.051142 
  -155.25188    28.873503    14.525791    16.058271 
  -76.514339    28.874593    14.526594    16.064978 
  -177.93231    28.874918    14.525267    16.070218 
  -52.996668    28.873464    14.521934    16.073312 
  -35.484547     28.87148    14.516505    16.074626 
   -73.97852    28.869141    14.509748    16.073668 
   86.381409    28.866063    14.501685    16.071606 
   174.58945    28.863848    14.493098    16.069353 
   124.61388    28.863379    14.484011    16.065921 
   160.98507    28.864156    14.474465    16.062715 
   11.912767    28.866543    14.465822    16.059061 
  -10.359632    28.869049    14.457596    16.055213 
  -81.380178    28.871452    14.450827    16.051699 
   11.347174    28.873041    14.445269    16.048688 
  -101.98819    28.874743    14.442177    16.045997 
  -162.80878    28.875425    14.441127    16.044028 
  -165.57043     28.87448    14.440947    16.043205 
   -99.61239    28.871878    14.441121    16.043538 
  -155.47515    28.868281    14.443197    16.045111 
   14.080379    28.863129    14.445681    16.047628 
  -27.760985    28.858117    14.448377    16.049934 
   46.333628    28.852828    14.451303    16.051202 
   32.061749    28.848002    14.454794    16.051868 
   79.188543    28.843497    14.457932    16.051904 
   107.47912    28.839784    14.461149     16.05222 
   57.112534    28.837145    14.463526    16.052452 
   93.143359    28.835078    14.464484    16.053119 
   15.691668    28.833942    14.464219    16.053843 
   149.17523    28.832963    14.462139    16.056288 
   229.31908    28.833476    14.459018    16.058455 
   115.02954    28.836282    14.454109    16.060995 
   4.3129702    28.840238    14.449508    16.063629 
    -22.1833    28.844237    14.444603    16.065802 
  -52.512985    28.848015    14.440213    16.066852 
  -56.597097    28.851267    14.437029    16.067276 
  -104.41236    28.853954    14.434546    16.067553 
  -200.57895    28.855596    14.432685    16.067069 
  -338.76788    28.855233    14.431523    16.065582 
  -129.78987    28.851482    14.431237    16.063404 
  -117.11392    28.846433    14.430851    16.060018 
  -141.88218    28.840212    14.430028    16.055838 
  -32.522398    28.832573    14.429641    16.050311 
  -5.5342129    28.824609    14.429668     16.04568 
   27.042285     28.81659    14.430963    16.043377 
    48.09961     28.80884    14.433172    16.042082 
   85.361513    28.801572    14.434925    16.042175 
   89.912683    28.795158    14.434812    16.043376 
   117.16094    28.789642    14.433984    16.044809 
    164.9533    28.785298    14.432239    16.046973 
   162.18475    28.782604    14.428951    16.049176 
   148.85562    28.781532     14.42488    16.051884 
   123.33753    28.781948    14.420176    16.053473 
  -26.433054    28.783597     14.41489     16.05518 
   75.386205    28.784983     14.40927    16.056885 
  -82.841494    28.787122    14.403354    16.058692 
  -22.533615    28.788432    14.397637    16.060148 
  -97.172649    28.789518    14.392726    16.061671 
  -9.8411783    28.789631    14.387607    16.062648 
  -86.461106    28.789646    14.383138    16.063448 
   24.679921    28.788797    14.379653      16.0642 
  -61.427704    28.788194    14.378037    16.063559 
  -4.5298745    28.786977    14.378085    16.062658 
  -12.204977    28.785715    14.379539     16.06172 
   78.677167    28.784331    14.381913    16.059872 
   97.086552    28.783733    14.384033    16.058466 
   124.44919    28.784107    14.386525    16.057679 
   27.275492    28.785724    14.387782    16.057466 
   45.314487    28.787615    14.388255    16.057993 
    188.8997    28.789959     14.38794    16.059414 
     154.452    28.794191    14.387997    16.062314 
   146.64203    28.799969    14.387767    16.066795 
   63.578997    28.807212    14.386225    16.072868 
   45.238657    28.815092    14.383612    16.079835 
  -31.080568    28.823424    14.380558    16.087657 
  -24.740022    28.831445    14.377686    16.096645 
   -49.54129    28.839218    14.374803    16.106542 
  -85.217122    28.846497    14.372634    16.116744 
  -61.920695    28.852923    14.370709    16.126978 
   -42.03232     28.85873     14.36826    16.137128 
  -52.338378    28.864116    14.366304    16.146828 
  -17.496325    28.868979    14.365053    16.156481 
   -71.50091    28.873667    14.364399    16.165913 
  -81.822811    28.877641     14.36424    16.175676 
   30.857696    28.880796    14.363441    16.184368 
  -95.859459    28.884259    14.362666    16.192077 
  -144.90021    28.886764    14.360766    16.198759 
  -79.694979     28.88782    14.358139     16.20452 
  -90.812555    28.888079    14.355451    16.209416 
  -57.607005     28.88743    14.352327    16.213633 
   37.049005    28.886205    14.349883    16.217915 
   128.74598     28.88535    14.347103    16.222079 
   43.741464    28.885783     14.34411    16.225456 
   66.344734    28.886653    14.340964    16.228595 
   163.21304    28.888186    14.337812    16.230995 
   40.799624    28.891352    14.334381    16.233446 
   98.602635    28.894926     14.33043    16.236519 
   84.776409    28.899486    14.326339    16.239811 
   80.151061    28.904893    14.321962    16.242606 
  -4.4025277    28.911102    14.317576    16.245542 
   24.716153    28.917267    14.313022    16.248385 
  -63.742924    28.923679    14.308638    16.251604 
   -40.26341    28.929454     14.30456    16.255775 
   9.3878116    28.934826    14.300717    16.259925 
  -61.745279    28.940292    14.297215    16.264313 
   11.338979    28.945141    14.294376    16.268951 
   8.6231847    28.950103    14.292226    16.274041 
   78.939852    28.955151    14.289682    16.280672 
  -22.073054    28.960988    14.287001    16.287935 
   34.028685    28.966605    14.284348     16.29577 
   118.33716    28.972562    14.281534     16.30376 
   58.190251    28.979703    14.278645    16.311476 
   18.218861    28.987425    14.275717    16.318952 
   34.619642     28.99533    14.271378    16.324717 
   59.205741     29.00358    14.266704     16.32893 
   107.64466    29.012423    14.261804    16.330986 
  -12.887004    29.022342    14.255785    16.331545 
  -62.703467    29.032133    14.249178    16.331336 
  -101.10767    29.041296     14.24366    16.331045 
  -70.596735    29.049448    14.239016    16.330667 
   17.062969    29.056895    14.235203    16.329521 
  -110.46723    29.064512    14.232416    16.327509 
  -150.56752    29.071024    14.230118    16.325742 
  -79.708125    29.076031    14.229023    16.324129 
  -27.747014     29.08024    14.228002    16.321983 
   -104.5863    29.084172    14.226638    16.319007 
   -55.48972    29.087058    14.226314    16.316627 
  -23.187853     29.08939    14.225705    16.315559 
  -12.658583    29.091489    14.225047    16.315703 
  -110.78227    29.093462    14.224118    16.317463 
   16.552391    29.094327    14.223068    16.319755 
   107.53205    29.095357    14.222161    16.322427 
   71.818375    29.097463    14.220784    16.325492 
   114.44465    29.100287    14.219769    16.327748 
    101.6005    29.104256    14.219075    16.329792 
   130.13249     29.10924    14.218246    16.331407 
   101.51483    29.115526    14.217955    16.333459 
    34.12717    29.122827    14.217812    16.335093 
   75.711429    29.130469    14.217741    16.336702 
   22.077803    29.138869       14.218    16.338164 
    6.098191    29.147489    14.217822    16.339766 
  -35.184666     29.15617    14.216241    16.341526 
  -69.375729    29.164499    14.214266    16.343283 
  -227.07354    29.172135      14.2119     16.34532 
  -444.68212    29.177499    14.209211    16.347696 
  -397.16492    29.178417      14.2072     16.34882 
  -152.73225    29.175364    14.205816    16.349377 
   56.758074    29.170782    14.205279    16.350244 
   33.487394    29.166769     14.20489    16.351561 
   156.49849     29.16309    14.206108    16.353506 
   197.04913    29.160977     14.20815    16.355333 
   148.18399    29.160834    14.211042    16.357238 
   109.24636    29.162172    14.214224    16.359788 
   42.209023    29.164604    14.216381    16.361549 
  -85.654048    29.167457    14.216896    16.361751 
  -5.0273874    29.169454    14.216362    16.360723 
  -59.127826      29.1714    14.215108     16.35819 
  -43.726238    29.172755    14.212788    16.354543 
  -20.580291    29.173673    14.208703    16.350357 
   1.6356272    29.174385    14.204236    16.345471 
   13.958165    29.175114    14.199439    16.340131 
  -43.061249    29.175982    14.194218    16.334346 
  -28.346508    29.176419    14.189236     16.32803 
   46.907416    29.176573    14.183688    16.320859 
   15.049173    29.177197    14.178228    16.314816 
   89.125944     29.17797    14.172895    16.309878 
   127.66489    29.179635    14.167892    16.306023 
   120.60252    29.182576    14.164233    16.302279 
   236.17268    29.186724    14.161125    16.298796 
   74.450501    29.193233    14.158185    16.294744 
   55.086288    29.200487    14.155893    16.291091 
  -14.540166    29.208291    14.154134    16.288141 
  -166.07557    29.215951    14.152748    16.285999 
  -327.96525    29.221949    14.153025    16.284275 
  -299.90952    29.224668    14.154093    16.282918 
  -238.87999    29.224387    14.156197    16.282279 
  -132.27418    29.221718    14.158923    16.281913 
   16.580408    29.217727    14.162598    16.280704 
   17.152929      29.2139    14.167237    16.278797 
   68.871902    29.210246    14.171906    16.277152 
   137.61781     29.20728    14.177052     16.27498 
    39.50836     29.20569    14.182326    16.273035 
    97.13331    29.204496    14.186723     16.27063 
  -158.03895    29.204273    14.190269    16.267574 
  -134.95111    29.202469    14.192436    16.263536 
  -31.177107    29.199316    14.193033     16.25912 
   81.269795    29.195851    14.191507    16.254629 
   77.984183    29.193199    14.188604    16.250234 
   148.31543    29.191327    14.185095    16.246617 
   133.11132    29.190937    14.181389    16.243236 
   95.233736    29.191879    14.177731    16.239834 
   174.70327    29.193774    14.174816    16.237024 
    102.2738    29.197415    14.172786    16.234678 
   96.760216    29.202079    14.171413    16.232392 
   81.308291    29.207711    14.170805    16.230066 
  -173.39672    29.214155    14.170651    16.227174 
  -446.46553    29.218866    14.170679    16.222911 
  -336.98158    29.219112    14.171623    16.218015 
  -48.026443    29.215988    14.173113    16.211491 
   58.877392    29.212384    14.174826    16.204387 
   125.67343    29.209369    14.177369    16.197893 
   172.36369    29.207611    14.180677    16.191963 
   99.310707    29.207576    14.185838    16.187172 
  -201.07857    29.208534    14.192514    16.184497 
  -213.76874    29.207482    14.199635    16.183316 
  -77.277399    29.204291      14.2072    16.183071 
  -7.7348277    29.200328    14.215759    16.183499 
   14.895208    29.196288    14.224641    16.184741 
   145.07089    29.192397    14.233089     16.18645 
   183.77898    29.189956    14.241116    16.187523 
   38.836946    29.189353    14.248205     16.18955 
     101.198    29.189139    14.254626    16.191839 
  -14.364026    29.189936    14.260567    16.195513 
   2.1244404     29.19059    14.264265    16.200638 
  0.74215905    29.191265     14.26729    16.206064 
  -56.043014    29.191948    14.270165     16.21168 
   45.722138     29.19207    14.273608    16.216221 
   20.474291    29.192649    14.276934    16.220526 
   78.741149    29.193433    14.279922    16.224216 
   69.499024    29.195004    14.282825    16.227306 
   79.577666    29.197271    14.285319    16.229845 
   78.672086    29.200333    14.287787    16.231741 
   109.68886    29.204182    14.290133    16.234335 
   81.911733    29.209128    14.291492    16.237399 
   58.987235    29.214893    14.292709    16.240344 
   109.49812    29.221248    14.293899    16.242655 
   93.900926    29.228697    14.295287    16.244424 
   -128.8868    29.237086    14.296756     16.24585 
  -169.05467    29.244186     14.29882    16.247469 
  -259.10371    29.249595    14.301379    16.248642 
  -232.31776    29.252414    14.305033    16.249865 
  -266.50038    29.252909    14.309515    16.251391 
   37.605499    29.250739    14.315062    16.252829 
  -13.292199    29.248945    14.321815    16.253762 
   91.803383    29.247019    14.329085    16.254903 
   47.385264     29.24601    14.337327    16.256481 
   52.026975    29.245475    14.345671    16.257594 
    50.92238    29.245461     14.35285    16.258587 
   76.442944    29.245955    14.358807     16.25842 
   138.82116    29.247214    14.362656    16.257721 
   114.78151    29.249862    14.364883    16.256309 
   57.434377    29.253657    14.365544    16.254049 
   94.380959    29.258026    14.364114    16.250865 
   66.855324     29.26334    14.361124    16.247144 
  -54.888488    29.269321    14.357078     16.24331 
   34.293236    29.274754    14.351804    16.239657 
   69.198353     29.28053    14.345976    16.236899 
  -25.351927    29.286998    14.340148    16.234351 
  -101.16093    29.293212    14.333763    16.232059 
  -394.87356    29.298415     14.32708    16.229855 
  -365.35084    29.299669    14.319603    16.227985 
  -190.61768     29.29727    14.311286    16.226489 
   -126.8568    29.292964    14.303234    16.225249 
  -70.428071     29.28739    14.296382    16.224632 
   -231.2899    29.281111      14.2897      16.2239 
  -162.42188     29.27252      14.2835    16.223057 
  -95.566623    29.262304    14.277599    16.221515 
   31.939774    29.251133     14.27203     16.21952 
   82.997726    29.240281    14.267285     16.21687 
   121.46748    29.230259    14.262536    16.213246 
   131.01834    29.221452    14.257085     16.20939 
   197.74722    29.213955    14.252135    16.204699 
   75.740756    29.208435    14.246335    16.200338 
   91.238578    29.203673    14.240343    16.196354 
   42.813486    29.199823    14.232689    16.193395 
   36.663166    29.196401    14.224414    16.190376 
    68.42877    29.193346    14.214625    16.188041 
   99.964314    29.190976    14.204948    16.186239 
   86.456679    29.189605     14.19553    16.184891 
   12.286672    29.189098    14.185642    16.183659 
  -10.264139    29.188714    14.176455    16.182009 
   -1.998144    29.188228    14.168084    16.181446 
   97.129062    29.187722    14.160101    16.182162 
   21.406484    29.188187    14.153723    16.183358 
   61.231334    29.188866    14.148702    16.184699 
   67.348284    29.190157    14.143852     16.18554 
   41.214654    29.192122    14.140094    16.185888 
   63.640726    29.194499    14.136825    16.185977 
  -101.08832    29.197512    14.133491     16.18549 
  -145.16114    29.199515    14.130014    16.184529 
  -46.746138    29.200066    14.126465    16.183151 
   107.41807    29.200149     14.12339    16.181519 
   78.559699    29.201307    14.120436    16.178633 
   144.48624     29.20325    14.118206    16.175169 
   76.219825    29.206638    14.116356    16.171733 
  -203.53262    29.210788    14.114905    16.168298 
  -382.36202    29.212903    14.113627    16.164841 
  -435.43932    29.211195    14.112556    16.161808 
  -218.68104    29.205132    14.111625    16.160134 
   23.216444    29.196882    14.110535    16.158452 
   105.20133    29.188864    14.109649    16.156867 
   85.898132    29.181898     14.10906    16.155879 
   157.76358    29.175792    14.109246    16.156097 
   208.20876    29.171263    14.110242    16.157389 
   140.65106    29.168816    14.112177    16.159151 
   127.05001    29.167775    14.113994    16.160384 
    29.76451    29.168005    14.115085    16.162447 
   60.852865    29.168533    14.116116    16.164369 
   163.97717    29.169669    14.116583    16.166921 
   77.290431    29.172445    14.117787    16.168601 
  -63.432816    29.175994    14.118518    16.168897 
  -24.901305    29.178908    14.120223    16.167805 
  -37.750199    29.181574    14.122622     16.16578 
     6.83884    29.183862    14.124926    16.163127 
  -9.2467905    29.186218    14.127538    16.159879 
   15.692283    29.188482    14.130223    16.155509 
  -65.002459    29.190903    14.132939    16.150845 
    98.46203    29.192674      14.1347    16.146215 
   93.226314     29.19543    14.136453    16.141759 
    116.4598    29.199117    14.137718    16.137698 
   170.30735     29.20397    14.138619    16.134172 
   39.987457    29.210525    14.139758    16.130708 
   47.461535     29.21748    14.141261     16.12924 
 -0.90135718     29.22491    14.143635    16.129133 
  -49.583816    29.232331    14.145935    16.129255 
  -53.092295    29.239256    14.149657    16.129632 
  -218.62805     29.24565    14.153667    16.129382 
   -239.7964    29.249858    14.158323    16.129368 
  -215.13322    29.251668    14.163754    16.129444 
  -11.846447    29.251327     14.16933    16.128829 
  -18.061679    29.250867    14.175296    16.127762 
  -40.764734    29.250226    14.180636    16.126173 
  -59.134046    29.249178    14.185785    16.124084 
  -70.936223    29.247538    14.191093    16.122177 
  -48.034119     29.24519    14.195968    16.120452 
   12.882254     29.24236    14.200649    16.118662 
   18.951713     29.23966    14.204402    16.117061 
   51.849287    29.237149    14.208163    16.115595 
  0.46815217    29.235157    14.212124    16.114606 
   84.344634    29.233169    14.215491    16.113983 
   1.2700233    29.232025    14.218123    16.113686 
  -75.456289    29.230893     14.22138    16.114554 
   74.049196    29.229007    14.224914    16.115883 
   26.947834    29.227861     14.22822    16.118437 
    45.90416    29.226985    14.232002    16.121805 
    52.50576    29.226568    14.237081    16.126155 
   39.547178    29.226676    14.242582    16.130259 
   92.985779    29.227179    14.249387     16.13385 
   55.788938    29.228613    14.256838    16.136623 
   103.37727    29.230604    14.264088    16.139572 
   24.348792    29.233629    14.270692    16.142012 
  -1.1865253    29.236897    14.277004    16.143709 
   -62.06939    29.240154    14.282586    16.145482 
  -248.24574     29.24279    14.287286    16.146934 
  -352.68561    29.242943    14.291784    16.148244 
  -217.45098     29.23957    14.295231    16.149252 
  -195.38626    29.234022    14.297407    16.149669 
  -99.565089     29.22652    14.299137    16.149398 
   43.200769    29.218022    14.300534    16.150052 
   131.46984    29.209957    14.301893    16.151188 
   71.159498    29.203206    14.303415      16.1523 
   143.64775    29.197167     14.30656    16.153363 
  -7.0166872    29.192564    14.310433    16.155484 
   24.483727    29.187891     14.31479     16.15786 
   49.746861    29.183463    14.319794    16.160517 
   57.487176    29.179533    14.325392    16.162976 
   53.748937    29.176177    14.332305     16.16462 
   161.05244    29.173359    14.339798    16.166351 
   93.707627    29.172151    14.347411     16.16719 
    174.0594    29.171881    14.353993    16.167856 
   104.37891    29.173351    14.360467    16.168244 
   77.282829    29.175864     14.36749    16.168185 
  -14.698989    29.179151    14.373787    16.168155 
   36.374829    29.182291    14.378606    16.167979 
   51.711964    29.185794    14.383394    16.167107 
   13.391725    29.189815    14.388037    16.166227 
   54.961434    29.193969    14.392412    16.165406 
   86.238808    29.198673     14.39622    16.164744 
   33.571432    29.204239    14.399514     16.16474 
   -109.7088    29.210142    14.402269    16.165048 
  -375.02406    29.214947    14.404844    16.165248 
  -297.11281    29.216001    14.407626      16.1659 
  -115.37682    29.214085    14.410256     16.16637 
  -97.458372    29.211015    14.412289    16.166355 
  -49.531288     29.20697    14.413937    16.165459 
   100.38562     29.20243     14.41595    16.164113 
   5.0286189    29.198894    14.418711    16.162003 
   33.280767    29.195408    14.421724    16.160024 
   10.091706    29.192255    14.425185    16.157746 
   2.7428294    29.189203    14.428491    16.154025 
   50.850937    29.186178     14.43174    16.149188 
   72.746915    29.183662    14.434199    16.144476 
  -3.4806963    29.181873    14.436542    16.140045 
  -21.681061     29.18005    14.438877    16.134908 
   50.070442     29.17801    14.441806    16.130176 
  -16.410792     29.17647     14.44446    16.125686 
   53.883601    29.174766    14.446639    16.121115 
   60.477555    29.173601    14.447901    16.116843 
   72.110133    29.173041    14.449099    16.113262 
   59.310921    29.173202    14.451147    16.109586 
   23.752242    29.173956    14.453417     16.10714 
   43.254778    29.174948    14.455786    16.105124 
   96.527359    29.176372    14.458126    16.103154 
   76.562569    29.178761    14.461353    16.101047 
   30.300251    29.181917    14.465351    16.097731 
   16.435799    29.185375    14.469875    16.094472 
  -66.277078    29.188997    14.474175    16.089743 
  -188.20436    29.191957    14.478217    16.084038 
  -288.89619    29.193034    14.481679     16.07826 
  -324.41476    29.191223    14.484962    16.072386 
  -250.86741    29.186167    14.488015    16.066481 
  -103.88986    29.178603     14.49077    16.061217 
   30.736141        29.17      14.4941    16.055713 
   91.264093    29.161704    14.497499    16.050452 
   95.093094    29.154321    14.500703    16.045932 
   182.67918    29.147889    14.504496    16.041637 
   100.12113    29.143284    14.508642    16.037419 
   38.288171     29.13968    14.512347     16.03433 
   98.008508    29.136458    14.516132    16.032082 
 -0.34107325    29.134217        14.52    16.030245 
    23.47929    29.131973    14.524284    16.030143 
  -8.9028575    29.129963    14.529321    16.030706 
   4.3994388    29.127864    14.534952     16.03188 
   22.523833    29.125809    14.541067    16.034503 
  -71.287514    29.123979    14.547183    16.037499 
   10.844176    29.121437     14.55348    16.039987 
   29.534132    29.119003    14.560143    16.042108 
   12.570003    29.116864    14.566956    16.041933 
   31.589073    29.114851    14.573494    16.040014 
   55.272938    29.113154    14.580048    16.037491 
   53.623018     29.11201    14.586275    16.033975 
   52.175416    29.111402    14.592007     16.03006 
   60.346458    29.111315    14.597357    16.027412 
  -77.002252    29.111832     14.60194    16.025545 
  -175.49317    29.111579    14.605866    16.024251 
  -242.23707    29.109572    14.609005    16.023496 
  -80.466009    29.105141     14.61177    16.022487 
  -78.083051    29.099906    14.614663    16.021145 
 -0.17513867    29.093891    14.617963    16.019718 
   54.170183    29.087873    14.622338    16.018468 
   112.89027    29.082397    14.627713    16.018208 
    29.17952    29.078051    14.634734    16.018268 
   98.936286    29.073995    14.642589    16.018268 
   70.422416     29.07093    14.650502     16.01849 
   19.211021    29.068568    14.657621    16.018226 
   144.69235    29.066399    14.662777    16.017599 
    117.9786    29.065676     14.66751    16.016658 
   35.580081    29.066134    14.671961    16.015056 
   1.8639153    29.066947    14.675367    16.013261 
  -30.348226    29.067779    14.678416    16.011289 
   54.005578    29.068307    14.680961    16.009456 
   18.925358    29.069375    14.682411    16.007609 
   14.570798    29.070633    14.683696    16.005962 
   34.937002    29.072036    14.684271    16.004144 
   38.662515    29.073789    14.684395    16.002368 
   28.410601    29.075928    14.684451    16.001505 
   49.638305    29.078351    14.683658    16.000999 
   1.5811537    29.081271    14.684186    16.001492 
   -93.07355    29.084207    14.685219    16.003064 
  -156.46638    29.086212    14.687481    16.005801 
  -61.213948    29.086652    14.689863    16.009572 
  -83.167179     29.08648    14.692981    16.014448 
  -22.340721    29.085476    14.696978    16.019326 
    40.60368    29.084249    14.700328    16.024889 
   -32.54824    29.083428    14.703503    16.030232 
   20.126975    29.082282    14.706088    16.035698 
  -8.0568421    29.081337    14.707328    16.039781 
   89.737638    29.080311    14.707548    16.042779 
   23.320824    29.080182    14.707507    16.044852 
   113.29025    29.080287    14.706447    16.046115 
   139.02236    29.081525    14.704121    16.046099 
   38.399362    29.084153    14.701836    16.045212 
   95.915215    29.087165    14.698617    16.044118 
   115.66857    29.091136    14.694492    16.043381 
   104.14759    29.096264    14.689758    16.042948 
   88.471096    29.102433    14.685439    16.043287 
   60.627163    29.109487    14.680614    16.043867 
  -22.199259    29.117147    14.676208    16.045152 
   44.388048    29.124585    14.671655    16.047742 
   66.747535    29.132468    14.666025    16.051844 
   38.552296    29.141017     14.65992    16.057219 
  -99.882788    29.149952    14.654445    16.063558 
  -271.92531    29.157889    14.648616    16.069738 
  -256.94975    29.163106    14.642688    16.076032 
  -357.05182    29.165753    14.636407    16.081644 
  -274.91816     29.16483    14.630575    16.087196 
  -168.73874    29.161158     14.62513    16.091582 
  -40.517671    29.155798    14.619211     16.09546 
   138.66148    29.150034    14.613528    16.098582 
   99.452687    29.145656    14.608137    16.101754 
   93.392079    29.142272    14.602547    16.105417 
   30.603396    29.139822    14.597265    16.109516 
   158.38426    29.137679    14.592642    16.113092 
     130.121    29.137119    14.588122    16.116631 
   1.0364605     29.13786    14.583611    16.121142 
  -5.1237134    29.138612    14.579525    16.126446 
   32.071411    29.139313    14.575779    16.133195 
   75.915547    29.140334    14.571187     16.14019 
   86.228969    29.142114    14.566913    16.147264 
   -5.727724    29.144757    14.563133    16.154965 
   70.784478    29.147342    14.559022    16.162345 
  -1.7241988    29.150636    14.554975    16.169946 
  -45.182244    29.153912     14.55031    16.176666 
   22.176705    29.156736    14.544695    16.183344 
  -69.494987    29.159782    14.539921    16.189922 
  -94.301385    29.162133    14.535399    16.195619 
  -261.25058    29.163541    14.530452    16.200141 
  -204.14626    29.162337    14.525895    16.203733 
  -192.31107    29.159091    14.522244    16.206368 
  -218.55894    29.153922    14.518886     16.20815 
   35.860397    29.146567    14.516483     16.20897 
   34.822876    29.139571    14.514774    16.210093 
   120.79643    29.132923    14.513561    16.210902 
   105.85116    29.127483    14.512072    16.212013 
   43.110314    29.123102    14.509986    16.213507 
   92.920317    29.119152    14.508064     16.21522 
   33.378209    29.116131    14.506143    16.217253 
   58.260767    29.113443     14.50414    16.219181 
   101.03063    29.111339    14.501682    16.221364 
  -22.057889    29.110244    14.498249    16.223254 
   106.97165    29.108929    14.494137    16.224359 
   1.1549251    29.108684    14.489449    16.224857 
  -39.690285    29.108451    14.484681    16.225147 
   59.428828     29.10782     14.47966    16.224617 
   63.412899    29.107784    14.474539    16.224102 
   50.195947    29.108382    14.470015     16.22379 
  -27.947016    29.109481    14.465381    16.223214 
   30.081128    29.110302    14.461754    16.222573 
   16.079904    29.111423    14.458758    16.222201 
   -149.7298    29.112705     14.45638    16.221643 
  -165.22988    29.112489    14.454405    16.220892 
  -158.74163    29.110622    14.453617    16.220539 
  -56.439049    29.107167     14.45347    16.220681 
  -22.903129    29.103147    14.453098    16.220701 
  -3.7685348    29.098899    14.452274    16.220602 
   50.868684    29.094613    14.450728     16.22006 
   45.082285    29.090835    14.449025     16.21926 
   184.08388    29.087509    14.446939     16.21773 
   45.318247    29.086023    14.444308    16.215164 
   107.09915     29.08499    14.441035    16.211507 
  -3.5332609    29.085029    14.437496    16.206994 
   112.64208    29.085032    14.433465    16.202232 
   80.491674    29.086161    14.429094    16.196625 
   14.520837    29.088095     14.42438    16.190371 
   142.44211    29.090175     14.41913    16.183276 
   48.496905    29.093679    14.414063    16.175957 
   50.007184    29.097668    14.408627    16.168943 
   75.536645    29.102157    14.403892    16.162136 
   7.3937934    29.107401    14.399048     16.15641 
  -24.415401     29.11272    14.394679    16.151698 
  -9.6743965    29.117794    14.391338    16.148015 
   -94.44549    29.122771    14.388711    16.145487 
  -144.90229    29.126804      14.3855    16.144015 
  -184.02445    29.129388    14.382224    16.143276 
  -131.08627    29.130132    14.378857    16.143023 
  -76.706969    29.129565    14.375438    16.143547 
  -2.3630912    29.128231    14.371549    16.144495 
  -26.613218    29.126873    14.367994    16.145739 
   118.64785    29.125249     14.36306    16.146882 
   135.94941    29.124811    14.357852    16.147434 
   92.622214    29.125733    14.352153     16.14806 
  -2.0369231    29.127582    14.346545    16.147436 
  -0.6726303    29.129409    14.339906    16.146783 
   60.534917    29.131231    14.332749    16.145141 
   52.967412    29.133657    14.324128    16.143099 
  -103.12982    29.136613    14.314684    16.140011 
  -15.852667    29.138538    14.305477     16.13681 
   24.228081    29.140304    14.296694    16.133276 
  -4.7953914    29.142313    14.288667    16.129268 
   63.345511    29.144274     14.28131    16.125769 
   -38.83183    29.146868    14.274481    16.122449 
  -53.934821    29.149073    14.267583    16.120994 
    117.0917     29.15074    14.261507    16.120314 
   16.935053    29.153577     14.25601    16.119993 
  -45.128964    29.156584      14.2507    16.120573 
  -34.889509    29.159139    14.245549    16.121988 
  -111.91579    29.161346    14.239515    16.125185 
  -175.22118    29.162433    14.232573    16.129545 
  -11.592977    29.161768    14.225402    16.135396 
    68.15318    29.160988    14.217733    16.141194 
   30.153344    29.160888    14.209648    16.147607 
   -22.85476    29.161091    14.201778    16.153271 
   26.192157    29.161064    14.194639     16.15832 
   58.952674      29.1613    14.187784    16.162787 
   5.8103224    29.162125    14.181061    16.166379 
  -18.439599    29.163009    14.174392    16.168713 
  -29.203898    29.163707    14.167962     16.17047 
   92.399955    29.164114    14.162281    16.171667 
   81.990528    29.165445    14.157468    16.172164 
   224.15002    29.167596    14.152933    16.172939 
   62.523457    29.171988    14.148566    16.174229 
   53.356456    29.177006    14.145477    16.175448 
   94.716995    29.182557    14.143087    16.178115 
  -15.260136    29.189055    14.140526    16.181492 
  -29.634432    29.195401    14.138346    16.186114 
  -66.562759     29.20145     14.13627    16.191693 
  -132.59016    29.206834    14.134308    16.198267 
  -243.06198    29.210891    14.131646    16.205141 
  -137.10809    29.212518    14.128888    16.212655 
  -104.99051    29.212774    14.126421    16.220745 
  -135.68458    29.211981    14.123715    16.228293 
  -113.46896     29.20983    14.120749    16.235542 
  -119.75079    29.206545    14.117583    16.242459 
  -19.435994    29.202062    14.114492    16.248686 
   35.324332    29.197384    14.111459    16.255186 
    56.97435     29.19306    14.107669    16.260802 
  -24.422678    29.189306    14.103824     16.26577 
    103.8961    29.185308    14.099665    16.270165 
   105.66341    29.182348    14.095332    16.273318 
   70.052226    29.180445    14.091109    16.275955 
   32.293787    29.179243    14.086927    16.277931 
  -22.382158    29.178363    14.082133    16.279654 
  -112.28912     29.17726    14.077526    16.282126 
  -123.43175    29.175034    14.072211    16.285516 
  -44.841366    29.171574    14.066641    16.289379 
   66.486114    29.167665    14.060286    16.293826 
   35.426354    29.164421    14.053722    16.299164 
   76.931607    29.161531    14.046174    16.304895 
   77.968698     29.15941    14.039071    16.310833 
  -90.869899     29.15807    14.031749    16.316744 
  -22.197336     29.15582    14.024465    16.323438 
   105.36599    29.153349    14.016701    16.330114 
  -32.557882    29.151931    14.009729    16.336248 
   61.722864    29.150188    14.003479     16.34151 
  -51.593341    29.149062    13.997988    16.344925 
  -38.966834     29.14742    13.992632    16.347009 
   62.105463    29.145388    13.987632    16.348738 
  -8.3018401    29.143977    13.982921    16.349857 
   38.363243    29.142483       13.978    16.350887 
   97.262818    29.141373    13.973785    16.351659 
  -7.6935022    29.141236    13.970176    16.351622 
  -21.543213    29.141022    13.966478    16.351491 
   23.788625    29.140592    13.962598    16.351549 
   87.309382      29.1404    13.957798    16.351763 
   45.904075    29.141081    13.952934    16.352419 
   102.58428    29.142221    13.947362    16.353953 
   92.452877    29.144387    13.941074    16.355952 
   26.956521    29.147478    13.933647     16.35821 
  -9.3698605    29.150838      13.9254    16.360156 
  -11.987982    29.154105    13.917414    16.363439 
  -64.474665    29.157251    13.909673    16.367019 
  -130.66539    29.159753    13.902906     16.37004 
   4.5671765    29.160948    13.896907    16.372692 
  -2.4259405    29.162189    13.891628    16.374582 
   8.8337141    29.163406    13.887129    16.376012 
   -15.76595    29.164711    13.883418    16.376526 
   6.1892895    29.165858    13.879752    16.376552 
  -4.3647741    29.167067    13.876335     16.37563 
   38.838065    29.168233    13.873267    16.374914 
   73.906791    29.169787    13.869383    16.373991 
   5.5211043     29.17208    13.864987    16.373398 
  -45.704666    29.174428    13.860061    16.372905 
  -14.004487    29.176319    13.855109    16.373253 
   14.614175     29.17807    13.850914    16.373719 
  -50.967112    29.179967    13.846768    16.373771 
  -7.3055863    29.181355    13.842573     16.37418 
   90.356507    29.182669    13.839197    16.374537 
  -46.408155    29.184887    13.835976    16.375217 
   11.762555    29.186641    13.832825    16.376158 
   26.204568    29.188513    13.829695    16.377855 
  -68.485136    29.190647    13.825557    16.379879 
  -70.981633    29.192095    13.821166     16.38223 
  -97.072395    29.192834    13.816677    16.384308 
   1.7623446    29.192603    13.812316    16.385974 
  -113.69384    29.192389    13.807726    16.387535 
  -71.650471    29.191038    13.803225    16.388598 
   68.519762     29.18897    13.799465    16.389092 
  -10.933696    29.187588    13.795816    16.389309 
   40.438743    29.186096    13.791436    16.389197 
  -28.816986    29.185009    13.787426    16.389434 
   -37.81814    29.183633    13.783358    16.389869 
  -66.691538     29.18188    13.778463    16.390044 
  -27.531038    29.179459    13.774402    16.389902 
  -34.452714    29.176763    13.769592    16.389429 
   102.07735    29.173723     13.76435     16.38847 
    24.77009    29.171703    13.758823    16.387767 
  -85.813442    29.169931    13.753287     16.38672 
  -6.1034397    29.167301    13.747515    16.385753 
    76.75682     29.16461    13.742362    16.384785 
  -21.865415    29.162686    13.737213    16.384196 
   75.067666    29.160544    13.731851    16.382624 
   94.186629    29.159153    13.726496    16.380562 
   26.405953    29.158703    13.721208    16.377919 
   20.140431    29.158517    13.716361    16.375641 
   15.301832    29.158533    13.712474     16.37311 
   25.725536    29.158702    13.709567    16.370564 
  -35.072824    29.159128     13.70749    16.368666 
  -11.081035    29.159204    13.706068    16.367244 
  -67.281026    29.159168    13.705371    16.365531 
   64.032905     29.15846    13.704999    16.364381 
  -5.7046232    29.158392    13.704319    16.363241 
   7.8522538    29.158267    13.704503    16.362491 
    30.49649    29.158221    13.704964    16.362302 
  -94.869864    29.158479     13.70584    16.362251 
  -10.179121    29.157789    13.707762    16.362063 
  -28.123634    29.156997     13.71005    16.361231 
  -139.07167    29.155924    13.712336    16.360312 
   43.306166     29.15346    13.714556    16.359443 
   58.943994    29.151429    13.716507    16.358623 
   35.898907    29.149987    13.717835    16.357654 
  -15.025886    29.148905    13.719375     16.35665 
  -38.690638    29.147672    13.720857    16.355272 
   48.679206    29.146053    13.722084    16.354042 
   91.615213     29.14492    13.723606    16.353831 
  -8.0923364    29.144703    13.726239    16.354323 
    78.83347    29.144406    13.729122    16.355598 
   137.40761    29.144896    13.732043    16.357643 
    73.55033    29.146761    13.734251     16.36107 
  -40.003702    29.149362     13.73673    16.364797 
  -24.681659    29.151562    13.739501    16.369337 
  -13.448528    29.153515    13.741784    16.374419 
  -34.557962    29.155334    13.744027    16.379323 
  -84.135277    29.156808    13.745767    16.384168 
  -145.14205     29.15744    13.747214    16.388974 
  -92.319217    29.156621    13.748392    16.393349 
   27.250632    29.154878    13.749536    16.396761 
  -18.140471    29.153408    13.750064    16.399641 
   2.3601487    29.151756    13.750249    16.402605 
    22.38457    29.150129    13.749577    16.404814 
  -24.705941    29.148725    13.749084    16.406456 
   76.180345    29.147074    13.747404    16.406943 
   103.86186    29.146184    13.745906    16.407032 
   77.755207    29.146334    13.744772    16.407208 
   146.45206    29.147261    13.743737    16.407157 
   66.038598    29.149652    13.743528    16.407181 
   114.01255    29.152704    13.743609    16.407197 
   146.21646    29.156896    13.743612    16.407479 
   121.88363     29.16255    13.744092    16.408451 
   45.304918    29.169423     13.74494    16.409994 
  -22.209104    29.176749    13.744798    16.412773 
  -109.76819    29.183853    13.744784    16.415915 
  -208.39006    29.189859    13.745204    16.418545 
  -221.25709    29.193781    13.746375    16.421254 
  -304.68731    29.195491    13.747375    16.423583 
  -94.504432    29.194154    13.748077    16.426112 
  -62.773091    29.191872    13.748911    16.428793 
   -76.99919    29.188962    13.749532    16.431723 
  -83.228924    29.185282    13.749336    16.435285 
   4.5246645     29.18077    13.749195    16.438153 
  -84.013872    29.176303    13.749149    16.440663 
   44.230567    29.170996    13.748892    16.442716 
   65.060039    29.166131    13.748298    16.443632 
   149.61227    29.161917    13.747736    16.443072 
   87.250398    29.159199    13.747417    16.442583 
    101.4353    29.157353    13.747981    16.441328 
   158.63758    29.156522    13.749551    16.439688 
   151.79119    29.157277    13.752389    16.437857 
   228.36601     29.15955    13.755174    16.435787 
   163.54903    29.164107    13.758936    16.433952 
   35.815504    29.170299    13.763371    16.432506 
   17.297153     29.17685    13.768509    16.431251 
  -26.217687    29.183573    13.773504    16.430675 
  -130.14921    29.190034    13.778978     16.43071 
  -184.17914    29.195194    13.784665    16.431494 
  -207.58431    29.198512    13.790859    16.432522 
  -210.18196    29.199754    13.797228    16.434902 
  -171.05752    29.198894    13.803445     16.43863 
  -145.73411    29.196324     13.80912    16.443711 
  -29.371465    29.192296    13.814046    16.449765 
  -36.727104    29.187975    13.817991    16.455743 
   6.5307932    29.183286    13.821282    16.461719 
   75.757536    29.178663    13.824141    16.468244 
   84.442238    29.174797    13.826654    16.474781 
   93.500407    29.171776    13.829551    16.480353 
   196.28228     29.16969    13.832465     16.48614 
   147.69906    29.169566    13.836368    16.491358 
   76.094904     29.17092     13.84065    16.495751 
   60.450995    29.173034    13.845126    16.500239 
   42.197702    29.175753    13.849971    16.503521 
  -0.5877794    29.178894    13.854892    16.506466 
   62.614418    29.182029    13.859884    16.509254 
  -112.32435     29.18579     13.86503    16.512254 
  -145.10344    29.188428    13.870302    16.514488 
  -107.99734    29.189615    13.875588    16.516913 
  -71.223332    29.189722    13.880302     16.51981 
  -165.52236    29.189117    13.884727    16.523262 
  -100.71473    29.186856    13.889191    16.526719 
  -11.644065    29.183588    13.893778    16.531347 
  -3.8074954    29.180204    13.897629     16.53634 
  -74.495258    29.176782    13.901479     16.54175 
  -14.786289    29.172615    13.905512     16.54705 
    86.34252      29.1683    13.909568    16.552713 
   66.962643    29.164848    13.913777    16.558335 
   134.49543    29.162066    13.918539    16.563972 
   167.72856    29.160629    13.923735    16.570137 
   131.57062     29.16087    13.929227     16.57587 
   141.39158    29.162426    13.935205    16.580868 
   141.34631    29.165396    13.941487    16.584279 
   180.63296    29.169779    13.948345    16.586957 
   141.87833    29.175969    13.954476    16.588589 
  -66.408435    29.183577    13.960078    16.589378 
  -169.41107    29.190521    13.964904    16.588799 
  -75.625873    29.195772    13.969577    16.587281 
  -147.42575    29.200266    13.973725    16.585313 
  -182.34455    29.203286    13.977474    16.583103 
  -123.46874    29.204482    13.979682    16.580947 
  -66.407331    29.204444    13.981026    16.578872 
  -142.49784    29.203741    13.981821      16.5778 
   -27.84504    29.201614    13.983057    16.577271 
  -156.69217    29.199208    13.984244    16.577926 
   16.389272    29.195235    13.986242    16.579874 
  -64.137306    29.191426    13.988969    16.582793 
   7.3134721    29.186976     13.99274    16.585715 
    105.0033    29.182599    13.996804    16.588226 
   45.044188    29.179272    14.001617    16.590591 
   76.684983    29.176395    14.005651    16.593192 
   140.35323    29.174285    14.010354    16.595707 
   127.59675    29.173579    14.015438    16.596608 
   43.187547    29.174149    14.019958    16.596512 
  -85.448202     29.17515    14.023944    16.594583 
  -32.215369    29.175297    14.027389    16.590656 
  -122.91013    29.175122    14.029473    16.585097 
  -84.420184    29.173718    14.031127    16.578359 
  -72.908696     29.17147    14.032448    16.571979 
  -249.77375    29.168492    14.033196    16.565615 
  -104.96598    29.163017    14.032852    16.559945 
  -75.999771    29.156492    14.032414    16.555476 
  -81.105496    29.149207     14.03158    16.553285 
  -92.304379    29.141111    14.030593    16.551889 
   79.115626    29.132092    14.029688    16.552245 
   1.5065774    29.123865    14.029616    16.554537 
  -2.3346867    29.115652    14.030126    16.558212 
   58.127895    29.107416     14.03055    16.561756 
   77.185661    29.099761    14.030694    16.565308 
   70.284093    29.092878    14.030337    16.569368 
   117.43586    29.086698    14.029413    16.573206 
    149.8007    29.081692    14.027916    16.575439 
   189.38123    29.078185    14.025608    16.577565 
   257.07983    29.076571    14.022845    16.578534 
   202.30145    29.077527    14.020021    16.578472 
   46.523431    29.080507    14.017341    16.577381 
   35.187634    29.083953    14.014967    16.575873 
  -87.070427     29.08775    14.012555    16.573472 
  -141.33934    29.090676     14.00996    16.569955 
  -89.077209    29.092189    14.008058    16.566206 
  -45.010068    29.092811    14.006533    16.563787 
  -34.903866    29.092983    14.006195    16.561885 
   2.1427143    29.092806    14.007056     16.56103 
  -67.489851     29.09265    14.008954    16.561103 
  -52.412996     29.09182    14.011722    16.562905 
  -1.5390442    29.090465    14.014696    16.566394 
   59.314227    29.089095    14.017053    16.572268 
   57.425057    29.088318    14.019704     16.57943 
   82.495473    29.088116    14.021538    16.586788 
   166.63293    29.088738    14.023119    16.595248 
   216.63983    29.091027    14.024041    16.604149 
   219.44248    29.095482    14.024451    16.612858 
   259.91864    29.102131     14.02412    16.621473 
     174.954     29.11138    14.024113    16.629045 
   109.84129    29.122378    14.023958    16.634615 
  -15.334098    29.134475    14.023642    16.638744 
  -199.05246    29.146418    14.023803    16.641504 
  -181.92376    29.156371    14.025312       16.643 
  -252.21995    29.164505    14.026888    16.643147 
  -208.99156    29.170116    14.029474    16.642562 
  -227.90011    29.173637     14.03295     16.64194 
   -153.0945     29.17488    14.037948    16.642579 
  -107.33007    29.174591    14.044048    16.644079 
  -59.149153    29.173229    14.050777     16.64718 
  -226.44374    29.171276    14.058184    16.651302 
  -132.23171    29.167058     14.06601    16.656914 
  -29.540041    29.161518    14.074764    16.663268 
   81.962853    29.155683    14.082879    16.669982 
    60.82523    29.150667    14.091502    16.677579 
   96.940484    29.146259    14.099727    16.684363 
   119.27716    29.142821    14.108341    16.690826 
   192.96023    29.140576    14.116348    16.696916 
    199.6048     29.14026    14.123884     16.70284 
    127.0774     29.14194    14.131361    16.708027 
   87.934208    29.144891    14.138326    16.712431 
  -59.863936    29.148722    14.144361    16.716104 
  -89.369147    29.151953    14.150075    16.718792 
  -101.15972    29.154291    14.155398    16.721468 
  -126.98007    29.155618    14.159947    16.723783 
  -192.09215    29.155674    14.164471    16.726092 
  -19.259255     29.15381    14.168667     16.72848 
  -59.089069    29.151753    14.173297     16.73155 
    -19.2702    29.149105    14.177511     16.73432 
  -71.739129    29.146265     14.18232      16.7372 
  -5.5797281    29.142707    14.187332    16.740966 
  -78.957918    29.139093    14.192232    16.745579 
  -53.111247     29.13469       14.198    16.750772 
    4.716046    29.129756    14.203814    16.755634 
   36.772549    29.124869    14.210544     16.76175 
   117.48748    29.120349    14.216881    16.768393 
   191.68305    29.117004    14.223398    16.774953 
    198.6646    29.115577    14.229369    16.782275 
   132.54338    29.116136    14.234975    16.789567 
   161.95568     29.11802    14.240036    16.796274 
   129.77332    29.121524    14.244751    16.801882 
   72.121264    29.126325    14.248214    16.806058 
   46.532146    29.131848    14.250805    16.809363 
   -25.13679    29.137836    14.252996    16.811878 
  -97.589673    29.143573    14.254639    16.812604 
  -29.611857    29.148334    14.255556    16.812554 
  -70.628462    29.152799    14.256026    16.812576 
  -78.906607    29.156557    14.256597    16.811206 
  -86.856896    29.159527    14.257099    16.810302 
  -130.15441    29.161627    14.257298    16.809466 
  -111.72255    29.162427    14.258151    16.809387 
  -67.308532    29.162109    14.259227    16.810643 
    67.08471    29.161118    14.260424    16.813321 
  -39.449893    29.160797    14.261807    16.817518 
   15.505154    29.160083    14.263343    16.822716 
   183.78016    29.159523      14.2656    16.828802 
   111.75913    29.160801     14.26845    16.836237 
   185.92491    29.163197    14.271351    16.843741 
   106.51438    29.167452    14.273633    16.851202 
   178.45041    29.172772    14.276031    16.857919 
   74.914641    29.179877     14.27738    16.864286 
   15.575726    29.187731    14.277695    16.869276 
  -118.91785     29.19574    14.278163     16.87294 
  -126.68841    29.202561    14.277241    16.874367 
  -228.64989    29.208114    14.276486    16.873948 
   -307.0239    29.211381    14.275311    16.872546 
  -214.36545    29.211578    14.273596    16.871493 
  -106.67851    29.209631    14.272204    16.870325 
  -92.408871    29.206617    14.271146      16.8694 
   -97.78823     29.20268    14.270291    16.868866 
    -73.4203    29.197764    14.270268    16.868685 
  -74.864941    29.192114    14.271738    16.868536 
   74.583439    29.185716    14.274037     16.86953 
   144.04491    29.180063    14.276971    16.870616 
   135.15276    29.175851    14.281062    16.872371 
   123.84562     29.17299    14.286141    16.874894 
   175.42328    29.171368    14.291668    16.878228 
   219.59463      29.1715    14.297565    16.881737 
   181.04764    29.173828    14.303737    16.884898 
   144.84368    29.177966    14.309489    16.888141 
   84.709139    29.183553    14.314351    16.891022 
   21.437069    29.189987    14.318322    16.892657 
  -35.266194    29.196635    14.321782    16.893702 
  -151.24465    29.202931    14.323214    16.894202 
  -284.63346    29.207714    14.323797    16.895113 
  -352.18682    29.209651    14.323946    16.895405 
   -236.2198    29.208066    14.323375    16.895591 
  -142.80343    29.204119    14.322296    16.895158 
  -156.73766    29.198744    14.321719    16.894076 
  -128.40316    29.191801    14.321589     16.89254 
  -17.756499    29.183575    14.321433    16.891366 
   83.251428     29.17517    14.322109    16.890253 
   101.96389    29.167599    14.322746    16.889744 
   150.73146    29.161047    14.323827    16.889169 
   139.58503    29.156002    14.326259     16.88845 
   124.41691    29.152353    14.329067    16.887071 
   149.19856    29.149948    14.331819    16.886129 
   187.90731    29.149036    14.334533    16.885573 
   100.52264    29.150002    14.337566    16.884649 
   92.109585    29.151974    14.340508    16.882734 
   158.52827    29.154866    14.342636    16.881576 
   98.165909    29.159344    14.344166    16.880257 
   105.12943    29.164804    14.344033    16.878355 
   62.775921    29.171315    14.342376    16.875525 
  -58.159839    29.178454    14.339982    16.871676 
  -180.03243    29.185011    14.337569    16.867355 
  -247.86046    29.189767    14.335171    16.863362 
   -284.5518    29.192045    14.333153    16.859493 
  -124.60864    29.191478    14.332308    16.855745 
  -117.21135    29.189665    14.332049    16.852326 
   44.308009    29.186679    14.332351    16.849736 
   12.518606    29.184137    14.333547    16.847949 
  -14.635769    29.181719    14.335549    16.847038 
   35.323717    29.179156    14.337848    16.846435 
   169.42757    29.176945    14.342144    16.846201 
   95.819592    29.176429    14.347209    16.846045 
   200.35763    29.176871    14.351963    16.845771 
    166.2176    29.179317    14.357498    16.845746 
   164.09279    29.183425    14.363662    16.845049 
    167.0628    29.189173     14.37041    16.843932 
   62.525356    29.196593    14.376722    16.842947 
     23.7556    29.204637     14.38265    16.841401 
  -11.957925    29.212919    14.387815    16.838874 
  -140.53378    29.221082    14.392017    16.835338 
  -71.989571    29.227839    14.394285    16.829987 
  -77.886842    29.233877    14.395192    16.822747 
  -121.15269    29.239135    14.394908    16.814545 
  -203.91206    29.243182    14.394397    16.805219 
  -245.93986     29.24519    14.393256    16.796291 
  -191.53846    29.244738    14.392774    16.788145 
   -126.3305    29.242371    14.392994      16.7806 
  -76.431052    29.238741    14.394608      16.7733 
   35.394281    29.234347    14.396902    16.767167 
    61.02092    29.230306    14.400362     16.76209 
   14.960101    29.226875    14.405398    16.757676 
   114.43202    29.223595     14.41174    16.753816 
   183.63866    29.221458    14.419418    16.750161 
   141.97167    29.221158    14.428327    16.747578 
   55.250954    29.222278    14.437169     16.74542 
   50.119698     29.22395    14.446365    16.742754 
   168.38524    29.226123    14.456049    16.740913 
   30.397221     29.22998    14.465415    16.739045 
   128.11618    29.234141    14.474537    16.736886 
    55.57056    29.239584    14.483669    16.734746 
  -24.755551    29.245582    14.492166    16.732547 
  -135.72219    29.251332    14.499563    16.730059 
  -45.555205    29.255725    14.505397    16.726297 
  -158.96693    29.259663    14.511003    16.722569 
  -166.80245    29.262011    14.515842    16.718378 
  -128.38257    29.262691    14.519634     16.71443 
  -128.22469    29.262087    14.523394    16.710807 
  -110.47215    29.260201    14.527154    16.707343 
  -114.83568     29.25721    14.531807    16.704552 
   -100.8693    29.253071    14.536778    16.702486 
   7.0753822    29.247923    14.543054    16.701328 
  -44.094874    29.242846     14.54975    16.701281 
   66.920174    29.237328    14.557038      16.7022 
   99.473198    29.232479    14.564941    16.704473 
   85.583799    29.228625    14.572686    16.708159 
   4.3687359    29.225627    14.580559    16.713267 
   139.97302    29.222672    14.587552    16.718766 
   141.34197    29.221118    14.594148    16.723976 
    100.6245    29.220976    14.600236    16.729201 
   132.10383    29.221841    14.604629    16.733685 
   110.57751    29.224027    14.607834    16.737079 
   87.540921    29.227318     14.60811    16.739656 
   119.61882    29.231485    14.606445    16.741491 
   91.110891    29.236849    14.603754    16.743562 
  -88.768294    29.243123    14.600814    16.745898 
  -187.33139     29.24851    14.597787    16.749111 
  -313.91514    29.252023    14.595364    16.753078 
  -259.64512    29.252397    14.594398    16.757214 
  -242.11439    29.250175    14.592988    16.762043 
  -201.53273    29.245531     14.59165    16.767121 
   -99.33177    29.238873    14.590321    16.772076 
  -2.8190126    29.231221     14.58923     16.77793 
   50.966243     29.22354    14.588682    16.783874 
   51.036238     29.21637    14.588387    16.790844 
   132.49641    29.209709    14.587875    16.799099 
    200.9369    29.204374    14.587506    16.806788 
   129.50931    29.201048    14.587376    16.813596 
   135.66928    29.199017    14.586274    16.820513 
   159.79532    29.198343    14.585012    16.827062 
   176.21863    29.199267    14.583249    16.834201 
   228.80193    29.201953    14.580358    16.841082 
   113.53256    29.206927    14.577355    16.846981 
   29.948077    29.213037    14.574265    16.852569 
   77.619982    29.219446    14.570269    16.858768 
  -36.652997    29.226631    14.565941    16.863943 
  -109.95543    29.233449     14.56079      16.8692 
  -173.19837    29.239168    14.554949    16.874592 
  -165.92017    29.243155    14.550605    16.879988 
  -213.24081    29.245483    14.545996    16.884818 
  -289.03243    29.245678    14.542051     16.88982 
  -146.06791    29.242983    14.539089    16.895471 
  -76.775748    29.238828    14.537052    16.901378 
  -107.62962    29.233904     14.53439    16.906635 
   17.338275    29.227905    14.531971    16.911039 
   81.290692    29.222078    14.529964    16.915165 
    32.62966    29.217065    14.528316    16.918649 
    117.3897    29.212378    14.526323    16.921888 
   106.62315    29.208865    14.523513    16.924404 
   152.29621    29.206418    14.520811    16.925709 
   89.438368    29.205494    14.518072    16.926401 
   105.20896    29.205464    14.514859     16.92592 
   172.10376    29.206486     14.51099    16.925736 
   100.03799     29.20923    14.506525    16.924888 
   85.114224    29.212974    14.501937    16.924478 
  -31.400359    29.217569    14.497547    16.924669 
   14.246133     29.22185    14.492725    16.925362 
  -30.554253    29.226273    14.487052    16.926045 
  -123.90531    29.230391    14.481284    16.928081 
   -122.7277     29.23327    14.476162    16.929646 
  -125.63353    29.234922    14.470772    16.931662 
  -3.5213505    29.235317    14.465257    16.933717 
  -25.202962    29.235677    14.459588    16.935839 
  -46.846014    29.235785    14.453915    16.937762 
  -99.199338    29.235425    14.448216    16.939091 
    -107.288    29.234072    14.441384     16.93942 
  -55.360381    29.231647    14.434559    16.938648 
  -10.230866    29.228668    14.427486    16.936591 
   102.49752    29.225587    14.420456    16.934275 
   25.426844    29.223531    14.413102    16.932638 
   97.801083    29.221729    14.405995    16.929833 
   57.355075    29.220905    14.398584    16.926685 
   78.488923    29.220654     14.39101    16.923939 
   30.088161    29.221189    14.383013    16.921757 
  -86.077985    29.222024    14.375647    16.919936 
  -75.127522    29.221999    14.368174    16.918959 
  -40.111364    29.221222    14.361194    16.918516 
  -11.806439    29.220044    14.354001    16.919449 
  -61.808346    29.218748    14.347527    16.920213 
   13.451209    29.216835    14.341548    16.921379 
   43.180733    29.215055    14.336974    16.922504 
   5.2080142    29.213707    14.333109    16.924066 
   27.369985    29.212412    14.329711    16.926124 
   44.026763     29.21139    14.327191    16.927731 
  -39.703595    29.210808    14.324935    16.928757 
  -10.527731     29.20983    14.323843    16.928544 
   41.901195    29.208746    14.323267    16.927862 
    83.85508    29.208081    14.322698    16.926023 
   12.021543    29.208255    14.321631    16.923118 
   29.957016    29.208549    14.320259    16.918995 
   62.626124    29.209142    14.318727    16.914742 
  -6.7825956    29.210362    14.317237    16.909425 
  -44.034947    29.211514    14.315922    16.903363 
  -17.782139    29.212225    14.314156    16.896385 
[...]
   -55.66681     29.06617    15.552874    17.241643 
   23.129833    29.065058    15.555999    17.244017 
   58.096781    29.064177    15.559199    17.247625 
  -21.174113    29.063877    15.562034    17.251792 
   58.633326    29.063365    15.564764    17.256918 
   6.7759031     29.06344    15.567211    17.262283 
    20.75416    29.063582    15.569368    17.267439 
   42.223362    29.063932    15.571017    17.271668 
   52.696049    29.064704    15.572229    17.276063 
 -0.34969014    29.066004     15.57298    17.279738 
  -10.009136    29.067299    15.573426    17.282637 
  -13.326816    29.068495    15.573688    17.284206 
   1.8576251    29.069557    15.573365    17.286109 
  -36.841172    29.070638    15.572959     17.28751 
  -112.00802     29.07135    15.573018    17.288259 
  -178.29484    29.070943    15.573146    17.288214 
  -57.064629    29.068752    15.573654    17.288463 
  -97.670776    29.065991    15.574827    17.288584 
   8.0776763    29.062253    15.575941    17.288522 
  -6.3020484    29.058596    15.577449    17.288717 
   31.479032    29.054876    15.578804    17.289579 
  -3.0812934     29.05147     15.57994    17.291506 
   19.173902    29.048034    15.580709    17.293597 
   107.33666     29.04479    15.580692    17.296301 
   137.38935    29.042619    15.580209    17.299296 
   30.160046    29.041822    15.578811    17.302446 
   28.154984    29.041326    15.576549    17.305494 
   68.652558    29.041112    15.573671    17.308074 
   62.512145    29.041584    15.569997    17.310526 
   50.043117    29.042682    15.566235    17.312492 
   23.932434     29.04428    15.562711    17.314774 
   60.136915    29.046117    15.558524    17.316654 
  -71.900888    29.048556    15.554135     17.31819 
  -113.27864    29.050276    15.549684    17.319788 
  -149.79548    29.050863    15.545726    17.321503 
  -89.321404    29.049952     15.54242    17.322903 
  -46.931596    29.048148    15.539401    17.324378 
  -62.099347    29.045874    15.537172    17.325178 
  -4.4602257     29.04298    15.535735    17.325617 
  -14.147767     29.04004     15.53561    17.325809 
   9.9230458     29.03696    15.535376    17.325823 
    1.651029    29.033978    15.536105     17.32552 
   24.752753    29.031014    15.536975    17.324737 
  -34.785759    29.028296    15.538335    17.324058 
   64.813092    29.025231    15.540243    17.323002 
   29.904875    29.022814     15.54172    17.322425 
   71.932971    29.020696    15.542298     17.32195 
   107.44243    29.019297    15.542135    17.320861 
   69.737137    29.018973    15.541704    17.319633 
   81.011727    29.019346    15.539946    17.319063 
  -47.293014    29.020529    15.537943    17.318432 
  -36.751762     29.02124    15.536358    17.317148 
  -99.955064    29.021582     15.53568    17.316867 
  -33.471596    29.020926    15.535831     17.31711 
   41.042965    29.019934    15.535628    17.317534 
   8.2786918    29.019353    15.536065    17.318459 
   56.503343    29.018855    15.537511    17.319526 
    96.68978    29.018921    15.539195    17.320984 
   1.9074027    29.019955    15.541147    17.322427 
   5.4528944    29.021008    15.543339    17.324077 
  -47.373813    29.022115    15.545783    17.325971 
  -65.779476    29.022749    15.548496    17.327711 
  -70.348202    29.022724    15.551162    17.328377 
    54.41412    29.021997    15.553485    17.328562 
  0.77827212    29.021813    15.554911    17.328638 
  -8.7984859    29.021637    15.555917    17.329112 
  -4.6717615    29.021373    15.556097    17.329205 
   112.66504    29.021063    15.556067    17.329608 
   166.76054    29.021879      15.5555    17.330342 
   76.439818    29.024363     15.55582    17.331266 
  -2.5300299    29.027611    15.556181    17.332459 
  -99.420592    29.030833    15.556237    17.333781 
 -0.96939862    29.033062    15.556039    17.335548 
  -90.195408    29.035281    15.556425    17.337808 
  -25.215569    29.036598    15.556404    17.339984 
  -4.8053139    29.037663    15.556565    17.342697 
  -20.088325     29.03868    15.557098    17.345417 
  -115.15871    29.039495    15.558439    17.348374 
  -15.661053     29.03916    15.560524    17.351383 
  -58.215767    29.038667    15.562657    17.355246 
  -87.067988    29.037593    15.565168    17.359767 
  -69.259216    29.035648    15.567922    17.363818 
  -78.595754     29.03301    15.570804    17.367928 
   23.052057    29.029586    15.573614    17.371688 
   43.260814    29.026393    15.575948    17.374845 
   55.571693    29.023632     15.57859    17.377966 
   65.421412    29.021428    15.580662    17.381737 
  -43.954107    29.019877    15.582957    17.385875 
    24.78587    29.017887    15.585451    17.390205 
  -49.900182    29.016144    15.587361    17.394213 
  -71.007261    29.013903    15.588737    17.397504 
  -44.570428    29.010952     15.58858    17.399643 
   -6.112612    29.007554    15.588062    17.401314 
   14.389616    29.004096    15.587987    17.402207 
  -31.626514    29.000782    15.587091    17.402928 
   64.812499    28.997151    15.586034    17.403547 
   112.77432    28.994169     15.58505    17.404369 
   44.977555    28.992314    15.585009    17.405306 
  -14.560405    28.990909    15.585416    17.406408 
  -55.637767    28.989359    15.587189    17.406997 
  -157.67262    28.987252    15.590315    17.408003 
   -107.4872    28.983568    15.594377    17.409031 
  -9.4186809    28.978809    15.598712    17.410438 
  -29.233013    28.973957    15.603663    17.411591 
   54.507204    28.968812    15.608456    17.412824 
   21.053831    28.964212    15.613674    17.413911 
   51.875007    28.959822    15.618749    17.415305 
   23.693233    28.955951    15.623959    17.416733 
  -70.305782    28.952318    15.628062    17.418916 
   29.150801    28.947981    15.632197    17.420634 
   82.513273    28.943935    15.635981    17.421535 
   79.240627    28.940715    15.639259    17.421398 
  -1.7356878    28.938287     15.64221    17.420664 
   46.072736    28.935842     15.64442    17.419171 
   18.654135    28.933858    15.645766    17.417861 
   96.068642     28.93206    15.647025    17.416665 
   63.962035    28.931223    15.648511    17.414375 
   59.044989    28.931025    15.649747    17.411655 
   55.665888    28.931418    15.651164    17.408729 
  -43.632472    28.932368    15.653107    17.404569 
  -73.616041    28.932881    15.655078    17.398846 
  -10.205936    28.932658    15.657158    17.392861 
  -32.914128    28.932333    15.659869    17.387314 
   109.14124    28.931679     15.66333    17.383045 
   149.40816    28.932116     15.66672    17.379429 
   166.29296    28.934048    15.671183     17.37657 
   65.143688    28.937642     15.67487    17.375007 
   130.65247    28.941888    15.677742    17.373761 
   42.119896     28.94744    15.680647    17.373135 
   -53.22242    28.953413    15.684048    17.372863 
   9.6824192    28.958854    15.686674    17.371957 
  -32.789059    28.964392    15.689149    17.370051 
  -17.723191    28.969603    15.690989    17.366662 
   -62.50642    28.974636    15.692146     17.36216 
    73.64242    28.979043    15.693144    17.356715 
   33.183952    28.984188    15.694961    17.349641 
   5.3136045    28.989664    15.697067    17.342284 
  -68.151598    28.995193    15.699638    17.334945 
  -68.943819    29.000041    15.702914    17.327645 
  -155.59541    29.004199    15.706739    17.320042 
  -108.78397    29.006801    15.711432    17.312491 
  -77.176807    29.008316    15.716684    17.305849 
  -38.086772    29.009059    15.722145    17.299918 
  -86.322614    29.009421    15.727453    17.295843 
  -40.500336    29.008919    15.734285    17.293371 
   27.938755    29.008013    15.741935    17.293173 
   138.45352    29.007386    15.749116    17.294668 
   -52.41286    29.008143    15.757168    17.296741 
  -50.219982    29.008377    15.765482    17.299587 
  -4.7314157    29.008108    15.772858    17.302524 
  -94.749919    29.007792    15.779391    17.304564 
   -35.18974    29.006528    15.785415     17.30588 
   71.749605    29.004913    15.790004    17.306018 
  -42.126592    29.004015    15.794365    17.304967 
  -60.740324    29.002696    15.797858    17.302279 
  -10.398431    29.000769    15.801069    17.298857 
  -51.703682    28.998738    15.804657     17.29517 
  -41.924367    28.996191    15.807793    17.291125 
   -65.43074    28.993224     15.81088    17.287213 
   2.6090331    28.989603    15.814541     17.28277 
  -130.24951    28.986008    15.818325    17.278406 
   3.8475957     28.98111    15.822572    17.274337 
   124.80168    28.976251    15.827095    17.270296 
   156.95828     28.97264     15.83225    17.266588 
   133.31914    28.970598    15.838799    17.263665 
   90.115088     28.96989    15.846276    17.261927 
   105.55734    28.970083    15.854791     17.26059 
   105.07708    28.971331    15.862928    17.260614 
   91.462584     28.97363    15.870827    17.261756 
   46.612448    28.976844    15.877708    17.263218 
  -39.843539    28.980524     15.88333    17.264271 
  -81.779613    28.983805    15.888742     17.26501 
  -11.954407    28.986269     15.89356    17.265014 
  -23.309577    28.988613     15.89775     17.26512 
   26.309812    28.990724    15.901679    17.265023 
  -67.754876    28.993098    15.904776    17.264729 
   40.928253    28.994795    15.906899    17.263424 
    41.36284      28.9969     15.90937    17.261694 
   34.316913     28.99942    15.911908    17.259125 
   7.8165314    29.002283    15.914986     17.25666 
  -9.3019843    29.005223     15.91782    17.254054 
  -67.325589    29.008071    15.919972    17.250856 
  -6.6635408    29.010246     15.92198    17.247955 
   51.702358    29.012354    15.924391    17.245867 
  -2.5195864    29.014979    15.926715    17.242836 
   54.059484    29.017578    15.928459    17.240662 
   -9.858807    29.020719    15.929836     17.23872 
   4.0700813     29.02376    15.931111    17.237057 
  -23.545978    29.026843    15.933181    17.236949 
   26.308981     29.02969    15.935916    17.238067 
  -51.406377      29.0328    15.939406    17.239062 
   10.800509    29.035396     15.94302    17.240749 
  -19.920195      29.0381    15.947482    17.242385 
  -92.269185    29.040605    15.951145    17.244124 
  -69.663383    29.042187    15.954275    17.245763 
   40.262753    29.043072    15.957545    17.247375 
  -54.542867     29.04436    15.960983    17.248098 
  -83.388493    29.045103    15.964049    17.248261 
  -116.98854    29.045012    15.966753     17.24919 
   28.033914    29.043751    15.969286    17.249857 
   32.882214     29.04277     15.97252    17.249945 
   14.488504    29.042118    15.974827    17.250248 
   79.524451    29.041611    15.977164    17.250518 
   72.341453    29.041899    15.979732    17.250668 
   43.520018    29.042911    15.981986    17.250279 
   34.195407    29.044358    15.984239    17.249906 
   69.089311    29.046146    15.986708    17.249697 
  -59.994202    29.048626    15.988589    17.249028 
  -49.155368    29.050506    15.990013    17.248249 
  -88.243285    29.051894    15.990938    17.247659 
  -91.072206      29.0524     15.99206    17.246617 
  -62.009546    29.051995    15.992591    17.245319 
   6.0925752     29.05097    15.992287    17.243964 
   78.987599    29.050005    15.992982     17.24314 
   9.9093019    29.049831    15.993749    17.243598 
  -41.405752    29.049756    15.994716    17.244492 
   6.6016843    29.049267    15.995896    17.245412 
   54.837044    29.048843    15.997489     17.24615 
   11.102892    29.048969    15.999191    17.247128 
   38.409047    29.049205    16.000748    17.246715 
  -17.490229    29.049825    16.001902    17.244956 
   59.086443     29.05027     16.00246    17.242284 
  -34.423529    29.051307    16.002673    17.238656 
   -15.94709    29.051999    16.003271     17.23478 
   2.0507375    29.052531    16.005043    17.229936 
   61.154674    29.053084    16.007364    17.224216 
   105.95581    29.054249    16.009657     17.21896 
  -23.747753    29.056473    16.013495    17.214063 
  -31.990751    29.058459    16.017696    17.209232 
   -46.40018    29.060126    16.022687    17.203646 
  -99.595781    29.061329    16.028267    17.198741 
  -7.8534272    29.061536    16.034437    17.194814 
  -29.481682    29.061664    16.041204    17.190771 
  -121.42666    29.061497    16.047705    17.187139 
  -120.80918    29.060117    16.054193    17.184243 
  -115.45477    29.057528    16.060472    17.181291 
  -9.0571467    29.053784    16.066944    17.178314 
   4.1153589     29.04995     16.07251    17.175279 
   51.883124    29.046157    16.076128    17.172576 
   110.43413    29.042883    16.078644    17.169949 
   167.59745    29.040713    16.080659    17.167173 
   138.39971     29.04022    16.080994    17.164133 
    111.6868     29.04111    16.080266    17.160767 
   183.35595    29.043117    16.079528    17.156952 
   123.09326    29.046958      16.0785    17.151984 
    67.98766    29.052029    16.078016    17.146142 
   99.107568    29.057781     16.07776    17.139989 
   5.4663099    29.064523    16.077463    17.134537 
  -18.415654    29.071321    16.078248    17.129055 
  -64.354163    29.077934    16.079758    17.124677 
  -101.85719    29.083903    16.081363     17.12134 
  -219.44379    29.088854    16.083076    17.118786 
  -257.28757    29.091611    16.085133    17.116504 
  -224.88948    29.091794    16.086265    17.114509 
  -175.13321    29.089729    16.087568    17.112719 
  -218.24547    29.085912    16.088925    17.111528 
  -8.5592484    29.079913    16.089746    17.111566 
  -100.66573    29.073829    16.090846    17.112472 
  -22.792621    29.066738    16.091334    17.113036 
   12.599217    29.059418    16.091916    17.113832 
   118.52071    29.052225    16.091498    17.114661 
   115.22384    29.046217    16.090142    17.114844 
   127.12872    29.041361    16.088217    17.115588 
   155.23228    29.037777    16.086016    17.116535 
   70.317208    29.035745    16.083278    17.117736 
   144.69074    29.034416    16.080587    17.120111 
   96.447739    29.034534    16.078053    17.122801 
   90.644133    29.035616    16.075731       17.126 
  -9.3367227    29.037605    16.073112    17.129222 
  -57.731148      29.0395     16.07047     17.13326 
  -53.412138    29.040818    16.068105    17.137574 
  -122.74405    29.041602    16.066654       17.142 
  -24.267264    29.041159    16.065097    17.147154 
  -10.836207    29.040473    16.064526    17.151921 
  -62.579242    29.039678    16.064481    17.157255 
  -20.413051    29.038258    16.064753    17.161824 
  -46.359189    29.036634    16.065255    17.165912 
   -23.38923    29.034546     16.06627    17.169164 
  -74.824347    29.032224    16.067592    17.171993 
  -68.331907    29.029154    16.069121    17.174055 
  -5.2753492    29.025401    16.071411    17.174818 
   38.633599    29.021594     16.07324    17.174759 
   173.88983    29.018175      16.0751    17.173849 
   103.59269    29.016494    16.076542    17.171976 
   87.229549    29.015849    16.078761    17.169678 
   127.86988    29.016076    16.081234    17.167976 
   96.740795    29.017582    16.083456    17.166405 
  -28.357643    29.020055    16.085709    17.166263 
    36.45547    29.022245    16.088089    17.166101 
   11.095221    29.024799    16.089931    17.166388 
  -8.6989359    29.027465    16.092661    17.166524 
   -145.6693    29.030043    16.095285    17.166887 
  -47.023316    29.031165    16.097181    17.166205 
  -179.97479    29.031816    16.098725    17.165436 
   -26.51382    29.030668    16.100926    17.164408 
  -80.380282    29.029254    16.103108    17.163249 
  -132.57291    29.027037    16.104205    17.162675 
  -42.425432    29.023494    16.105002    17.161515 
  -41.268264    29.019527    16.105616    17.160033 
  -3.3701433    29.015147    16.106073    17.158555 
  -25.737806    29.010733    16.106365    17.157212 
    24.73225    29.006062    16.106914    17.154644 
   37.091142    29.001639    16.107132    17.152187 
   43.619541    28.997586    16.107142    17.148701 
   134.35378    28.993969    16.107042    17.145174 
   133.10673    28.991696    16.106126    17.141794 
   127.97588    28.990754    16.104955    17.137308 
   118.18619    28.991092    16.103383    17.132694 
    82.58113    28.992611    16.100953    17.127763 
   38.616813    28.994957    16.098319    17.123149 
  -40.589997    28.997689    16.095114    17.117814 
  -76.547354    29.000014    16.092768    17.113063 
  -145.01868    29.001574    16.090554    17.109417 
   3.4330233    29.001685    16.088332    17.107302 
   37.660061    29.001829    16.085688    17.106543 
   64.231079     29.00235    16.082986    17.106764 
    89.66598    29.003513    16.080716    17.106835 
   111.75762    29.005573    16.078624    17.107157 
   83.047081    29.008751    16.077288    17.107358 
   56.740625    29.012759    16.076125    17.108332 
  -8.7589351    29.017334     16.07532    17.108549 
   46.230013    29.021822    16.074768    17.107462 
  -159.29464    29.026772    16.074814    17.106551 
  -24.526712    29.030129    16.074907    17.105063 
  -72.416809    29.033241     16.07444    17.102713 
  -46.791182    29.035629    16.073995    17.099483 
   57.471334    29.037549    16.073663    17.096355 
  -2.2252014    29.040043     16.07368    17.092472 
  -1.6374956    29.042515    16.073362    17.088235 
  -30.959933    29.044971    16.072086    17.083156 
  -167.01481    29.047118     16.06861     17.07867 
  -117.82576    29.047594    16.065011    17.074279 
  -118.25416    29.046892    16.060364        17.07 
  -166.00817    29.045007     16.05428    17.066564 
  -71.440481    29.041462    16.047314    17.063332 
  -28.514009    29.037203     16.04028    17.061413 
   13.625623    29.032659     16.03444    17.060556 
    53.73561    29.028251    16.028376    17.059331 
   110.73338     29.02438    16.023369    17.058341 
  -14.149923    29.021617    16.018865    17.056942 
  -99.375223    29.018712     16.01393    17.055143 
  -14.543726    29.014814    16.009277    17.052902 
  -16.169829     29.01077    16.004901     17.05052 
    28.16361    29.006564    16.001391    17.047753 
   91.902584     29.00264     15.99842    17.045004 
   115.75338    28.999635    15.995592    17.041224 
   106.87775    28.997787     15.99278    17.036268 
   144.47756    28.997009     15.99069    17.030425 
    112.5587    28.997675    15.989199    17.024845 
   109.13288    28.999466    15.988242    17.020039 
   89.200354    29.002349    15.988202    17.015355 
   21.577365    29.006124    15.989104    17.010865 
  -40.435591    29.010115    15.990464    17.006406 
  -129.55474    29.013701    15.993154    17.003123 
  -89.068901    29.015992    15.997558    17.000415 
Loop time of 299.888 on 4 procs for 50000 steps with 8887 atoms

Performance: 144053.579 tau/day, 166.729 timesteps/s
99.9% CPU use with 4 MPI tasks x no OpenMP threads

MPI task timing breakdown:
Section |  min time  |  avg time  |  max time  |%varavg| %total
---------------------------------------------------------------
Pair    | 181.48     | 220.65     | 257.37     | 244.5 | 73.58
Bond    | 0.0092056  | 0.013163   | 0.019379   |   3.3 |  0.00
Neigh   | 30.38      | 30.408     | 30.438     |   0.5 | 10.14
Comm    | 10.212     | 46.697     | 85.573     | 528.2 | 15.57
Output  | 0.71616    | 0.7709     | 0.90267    |   8.8 |  0.26
Modify  | 0.62626    | 0.80446    | 0.97593    |  17.5 |  0.27
Other   |            | 0.5464     |            |       |  0.18

Nlocal:    2221.75 ave 2671 max 1777 min
Histogram: 2 0 0 0 0 0 0 0 0 2
Nghost:    5511.25 ave 5958 max 5060 min
Histogram: 2 0 0 0 0 0 0 0 0 2
Neighs:    340989 ave 398758 max 283685 min
Histogram: 2 0 0 0 0 0 0 0 0 2

Total # of neighbors = 1363955
Ave neighs/atom = 153.478
Ave special neighs/atom = 0.00540115
Neighbor list builds = 4994
Dangerous builds = 4962
Total wall time: 0:04:59
