LAMMPS (17 Nov 2016)
Reading data file ...
  orthogonal box = (0 0 0) to (60 30 30)
  2 by 1 by 2 MPI processor grid
  reading atoms ...
  8887 atoms
  scanning bonds ...
  1 = max bonds/atom
  reading bonds ...
  9 bonds
Finding 1-2 1-3 1-4 neighbors ...
 Special bond factors lj:   0          0          0         
 Special bond factors coul: 0          0          0         
  2 = max # of 1-2 neighbors
  2 = max # of 1-3 neighbors
  4 = max # of 1-4 neighbors
  6 = max # of special neighbors
10 atoms in group polymer
1 atoms in group first
Neighbor list info ...
  1 neighbor list requests
  update every 1 steps, delay 10 steps, check yes
  max neighbors/atom: 2000, page size: 100000
  master list distance cutoff = 3.3
  ghost atom cutoff = 3.3
  binsize = 1.65, bins = 37 19 19
Setting up Verlet run ...
  Unit style    : lj
  Current step  : 0
  Time step     : 0.02
Memory usage per processor = 4.13948 Mbytes
v_ftotal c_com[1] c_com[2] c_com[3] 
   30.786285         17.5           15           15 
   23.935865    17.501441    15.003346    15.011499 
  -28.033459     17.50384    15.006084     15.02087 
  -49.587986    17.505118    15.006189    15.027412 
    46.21043    17.504412    15.007351     15.03241 
   26.862549    17.505554    15.008687    15.038908 
   33.139573    17.507771    15.010344    15.048223 
   14.039271    17.511314    15.010732    15.057648 
   31.952267    17.515418    15.010925    15.067301 
  -22.974785      17.5208     15.01278    15.074845 
  -29.527178    17.525263    15.015882    15.082309 
  -21.679579    17.528545    15.019444    15.090489 
   50.310353     17.53096     15.02441    15.097605 
  -22.505166    17.535388    15.028456    15.105502 
  -6.0400737    17.538915    15.032391    15.114515 
   14.786973      17.5422    15.037602    15.121209 
  -44.424911    17.546077    15.041564    15.129594 
   22.191834    17.548177    15.044981    15.136442 
  -1.9193065    17.551165    15.049807    15.142888 
   20.765696    17.554076    15.052941    15.149565 
   -8.974531    17.557818    15.054383    15.158346 
   -7.852276      17.5612    15.054562    15.165831 
   47.472223    17.564269    15.056142    15.173761 
  -44.378252    17.569236    15.056364     15.18382 
  -3.3207259    17.572428    15.056102    15.193439 
   -34.79128    17.575488    15.054927    15.202667 
  -13.598233    17.577155    15.053525    15.212069 
  -39.394919    17.578279    15.054845    15.220108 
  -14.847879    17.577827    15.059142    15.229031 
  -19.022093    17.576781     15.06032    15.238123 
  -20.061114    17.574975    15.061769    15.246234 
   41.360046    17.572365    15.063343    15.253883 
   31.602658    17.571411    15.063228    15.261665 
   -25.20447     17.57172    15.061137    15.272052 
    54.77478    17.571021    15.058371    15.281467 
  -22.894071    17.572513    15.056155    15.290975 
  -3.5255312    17.573089    15.054975    15.299324 
   4.4437331    17.573525    15.055925    15.307707 
  -14.735365    17.574138    15.059867    15.314894 
   1.5152738    17.574161    15.064081    15.323023 
  -31.030112    17.574246    15.068096    15.329483 
   8.1638415    17.573089    15.070559    15.334962 
   44.832752    17.572258    15.073417    15.341043 
  -17.078813    17.573221    15.076397    15.347295 
   33.314164    17.573501    15.080721    15.353098 
  -27.180215    17.575113    15.085208     15.35814 
    29.54368    17.575639    15.088217    15.361912 
   24.628704    17.577345    15.090163    15.367027 
  -17.022956    17.580037    15.092149    15.370856 
  -13.027439    17.582049    15.093214    15.374818 
  -11.466823    17.583539    15.092712     15.37991 
   11.686952     17.58457    15.092334    15.385353 
   9.4087418    17.586069    15.092121    15.390411 
   30.758562    17.587944    15.091648    15.395779 
    71.99131    17.591049    15.090499     15.40159 
   1.7101674    17.597035    15.088428    15.406664 
  -1.3556138    17.603088    15.086213    15.412949 
   2.2478136    17.609087     15.08569     15.42044 
   46.033125    17.615177    15.084147    15.427206 
  -12.323871    17.623107    15.080792    15.433318 
   5.2214536    17.630545    15.077516    15.438563 
  -25.609979    17.638191    15.074991    15.443209 
   34.711354    17.644814    15.074622    15.444081 
  -30.806019    17.652824    15.074123    15.445134 
 -0.32533934    17.659602    15.073003    15.447176 
   -38.60243    17.666368    15.072486    15.449449 
  -40.571562    17.671589    15.073085    15.451294 
   16.670967    17.675187    15.072462    15.452456 
   23.366525    17.679452    15.073253    15.454733 
  -3.2042223    17.684652    15.072466    15.458939 
   31.179559    17.689724    15.068943    15.463831 
  -24.334914    17.696043     15.06577    15.468087 
  -25.479985    17.701388    15.063207    15.474206 
  -13.254422    17.705714    15.061603    15.480882 
  -11.360525     17.70951    15.062432    15.486679 
  -45.505403    17.712852    15.062629    15.493645 
   26.073786    17.714373    15.062946     15.50084 
  -5.1568045    17.716938    15.062864    15.505685 
   36.098106    17.719296    15.061167    15.509318 
  -49.579527    17.723098    15.058978    15.511123 
  -11.139804    17.724917    15.055325    15.514431 
  -0.8105446     17.72629    15.052267    15.517204 
   37.470726    17.727631    15.048632    15.517672 
   7.4705568    17.730471    15.045165    15.518694 
   -13.53412    17.733609    15.041525    15.519981 
   45.093114    17.736206    15.037452    15.522134 
    42.63928    17.740607     15.03263    15.525538 
   3.7077133    17.746713    15.028467       15.527 
   4.5870632    17.752968    15.025649    15.527908 
  -1.1462891    17.759406    15.022664    15.528186 
  -24.673478    17.765799     15.02107    15.531441 
   11.719541    17.771204    15.019134    15.535381 
   12.481578    17.777078     15.01493    15.537808 
   40.542788    17.783452    15.008436    15.538583 
   63.520179    17.791447    15.001595    15.538015 
   -5.671202    17.801983    14.993855    15.538244 
    61.46402    17.812292    14.983795    15.538182 
   65.693051     17.82506    14.972801    15.539337 
   2.2445494    17.840455    14.959808    15.541189 
   17.014165     17.85594    14.945145    15.542877 
  -4.4374735    17.872106    14.933019     15.54601 
   26.207558    17.888094     14.92104    15.548851 
   16.430172    17.905131    14.906491    15.548536 
  -8.2454903    17.922825     14.89179    15.548323 
  -3.7489611    17.940189    14.877567    15.547768 
  -49.319211    17.957403    14.863967     15.54678 
    41.38914    17.972644    14.847461    15.546242 
  -47.138293    17.989541    14.830906    15.545604 
   35.149444    18.004552    14.814075    15.542374 
  -31.503527    18.020969    14.798577    15.539083 
  -34.348766    18.036126    14.785003    15.535745 
   -17.42601     18.04991    14.770872    15.532062 
   55.780364    18.062996    14.759585    15.530631 
   42.085787    18.078313    14.749613    15.527561 
  -38.222459    18.095314    14.739002    15.527098 
  -13.777839    18.110786    14.726324    15.528034 
  -33.757764    18.125706    14.713403    15.527607 
  -5.5890926    18.139277    14.699106    15.527649 
   21.469123    18.152624    14.686466    15.528283 
   -22.86316    18.166829    14.674285    15.526831 
  -14.625328     18.18012    14.662058    15.525838 
  -31.537818    18.192826    14.650899     15.52304 
  -7.5412258    18.204271    14.641167    15.519921 
   73.670046    18.215414    14.631837    15.516502 
    39.42157    18.229504    14.623993    15.511253 
  -86.965875     18.24517    14.615404    15.506306 
   18.989821    18.257358    14.606923    15.501125 
  -23.965708    18.270306    14.599231    15.494226 
  -46.488031    18.282295     14.59217    15.486463 
  -34.537772    18.292424    14.584721    15.480571 
   6.4056604    18.301172    14.576219    15.473542 
   57.813898    18.310176     14.56976     15.46629 
   5.9076632    18.321493    14.564351    15.458614 
   -39.24923    18.333046    14.557652    15.450513 
   27.168756    18.343029    14.550875    15.440537 
   44.689792    18.354099    14.546319    15.431883 
   4.0231466    18.366956    14.544121    15.425527 
    6.506438    18.379974    14.540634     15.42035 
  -9.9656988    18.393253    14.537583    15.416512 
  -18.950135    18.406133    14.535163    15.415686 
  -4.3533057    18.418255    14.533875      15.4139 
  -1.8900862    18.430202     14.53171    15.411652 
    32.43577    18.442075    14.530405    15.409918 
   87.640057    18.455244    14.528263     15.41016 
    4.678279    18.471919    14.526873    15.410507 
   6.5636003    18.488782    14.524984    15.411369 
   6.5151505    18.505907    14.524044    15.411777 
    20.17454    18.523292     14.52325    15.410551 
  -48.486897    18.541484    14.524129    15.407866 
  -53.486938    18.557737    14.526886    15.403484 
  -31.932438    18.571851    14.530479    15.397669 
  -28.825238    18.584687    14.532701    15.392794 
  -86.692898     18.59637    14.536955    15.386857 
   -2.609527    18.604586    14.541854    15.381533 
   -40.90127    18.612697    14.545854    15.375872 
  -2.1923457    18.619172    14.547892    15.370694 
  -16.984093    18.625559    14.551031    15.366942 
  -25.494274    18.631267    14.554681    15.362536 
   30.852917    18.635956    14.558684    15.358918 
   6.3843171    18.641878     14.56351    15.354575 
   18.459694    18.648056    14.567043      15.3481 
  -35.729134    18.654972    14.571253     15.34185 
   24.973268    18.660459     14.57802    15.332926 
   41.116448    18.666945    14.586125    15.324497 
   30.143209    18.675075    14.594578    15.314424 
  -10.030668    18.684411    14.602198    15.304578 
   29.266408    18.693346    14.610362    15.295705 
   -49.56992    18.703452    14.617333    15.286325 
  -40.793819    18.711575    14.623863    15.277076 
    13.34171    18.718066    14.631879    15.269462 
  -34.152025    18.725091    14.641429    15.260337 
  -28.006802     18.73075    14.654002    15.251275 
  -1.6230405    18.735288    14.667204    15.243216 
   28.149852    18.739762    14.679833    15.233713 
   51.511683    18.745361    14.691241    15.223701 
   16.633297    18.753021    14.702246    15.213242 
   -36.51294    18.761347    14.712961    15.203312 
  -2.8502637    18.768211    14.722867    15.195844 
  -9.3924126    18.774962    14.732892    15.190659 
  -8.6306746    18.781337     14.74264    15.187255 
  -46.842423    18.787367    14.751724     15.18256 
  -12.464089    18.791523    14.758917    15.179629 
    4.098931    18.795181    14.766716    15.175239 
   28.636188    18.799002    14.774322    15.171166 
   32.503066    18.803969    14.780481    15.165953 
   -4.538308    18.810237    14.788527    15.161064 
  -32.654248    18.816322    14.798126    15.156777 
   18.132258    18.821102    14.808967    15.153086 
  -44.800098    18.826606    14.820492    15.148868 
   12.249793    18.830319    14.832559    15.142922 
   42.356657    18.834522    14.845616    15.134506 
   24.867871    18.840419    14.858343    15.128265 
  -70.852908    18.847311    14.870641    15.123976 
   -48.85127    18.851368    14.882543    15.121543 
  -30.294331    18.853472    14.893007    15.117891 
   6.3442561    18.854363    14.902582    15.115182 
    -6.49439    18.855509    14.913088    15.111377 
  -26.431141    18.856395     14.92467    15.108104 
   30.351858    18.856223    14.936225    15.103622 
   9.4053976    18.857266    14.949475    15.099259 
  -29.474507    18.858685    14.960428    15.095121 
  -20.349759    18.858924    14.971592    15.094571 
  -47.014447     18.85835    14.982095    15.091639 
   4.4463338    18.855895    14.993306    15.089878 
  -13.320459    18.853619    15.003459    15.088052 
  -28.649707    18.850809    15.011774    15.088082 
    15.94861    18.846853    15.018372    15.088675 
   -38.41305    18.843535    15.026437    15.088047 
  -13.878287    18.838681    15.035962    15.087388 
   31.467418    18.833272    15.045868    15.085276 
  -24.481673    18.829121    15.054718    15.085735 
   25.476413    18.823991    15.066285    15.085123 
  0.83014876     18.81988    15.077071    15.084829 
  -4.0560083    18.815802    15.087197    15.085488 
   16.180256    18.811562     15.09524    15.086457 
  -33.102276     18.80797    15.100479    15.086636 
  -19.207331    18.803053    15.105362    15.086994 
  -18.724893    18.797368    15.111539    15.088575 
   12.574561    18.790933    15.117286    15.088236 
   5.0973336    18.785002    15.122631    15.087163 
   28.738234    18.779275    15.127583    15.085809 
  -39.342371    18.774697    15.132252    15.087027 
   22.748589    18.768546    15.136604    15.088057 
   -34.41844    18.763304    15.141613    15.089825 
  -13.696858    18.756686    15.146374    15.092649 
  -21.451398     18.74952    15.151479    15.095272 
  -63.533873    18.741496    15.155755    15.096873 
  -18.176402     18.73093    15.159634    15.096946 
    22.16166    18.719638    15.160994    15.098269 
   6.0103445    18.709232    15.162004    15.098009 
  -15.751394    18.699066    15.162943     15.09724 
    -8.25579     18.68827     15.16527    15.097932 
   36.184645    18.677144    15.167679    15.098124 
  -61.559046    18.667466    15.171272    15.099541 
  -20.113196    18.655325     15.17547    15.102315 
   5.1758427    18.642379    15.178733     15.10482 
    28.96097    18.629641    15.181612    15.107343 
   -6.963213    18.618061    15.182307    15.107739 
  0.66025105    18.606203     15.18117    15.107638 
   28.066685     18.59437    15.179443    15.106365 
   48.985329    18.583661    15.180487    15.106953 
   10.090095    18.574911    15.181437    15.107662 
   10.531826    18.566565    15.184384    15.107836 
   66.671902    18.558639    15.187231    15.108826 
  -19.660729    18.553381    15.190359    15.108869 
  -17.458149    18.547336    15.195991    15.108031 
  -36.399731    18.540593    15.203678    15.106136 
  -6.8569647    18.532394    15.210722    15.104315 
   9.0873945    18.523921    15.217249    15.103591 
  -7.2630436    18.515811    15.223531    15.102964 
   52.957741    18.507411    15.230654    15.101767 
   8.9346314    18.501129    15.237995    15.100837 
   26.593975    18.495204    15.245138     15.10103 
  -3.7202008    18.490343    15.251744    15.100687 
  -41.179278    18.485334    15.256705    15.099865 
   21.565035    18.478677    15.261681    15.097656 
  -15.631304    18.472883    15.265492    15.096525 
  -24.308203    18.466463    15.267305    15.096177 
   39.290758    18.459071    15.267966    15.094674 
  -1.5122093    18.453251    15.272578    15.092078 
   10.170814     18.44737    15.276199    15.090698 
   53.529644    18.441896    15.279169     15.08969 
  -6.6780447    18.438564    15.280986    15.086915 
   -25.76638    18.434964    15.282327    15.085049 
   11.507218    18.430334    15.282286    15.083713 
   29.471708    18.426163    15.284299    15.083655 
  -17.761036    18.423172    15.286444     15.08257 
   5.9108744     18.41947    15.289031    15.080063 
   2.4659046    18.416005     15.29066    15.079334 
   10.296623    18.412638    15.291576    15.075315 
   17.786157    18.409684    15.291966    15.069737 
   5.9804852     18.40744    15.290921    15.063154 
  -5.8877089    18.405436    15.290167    15.059081 
    44.51522    18.403196     15.29189    15.055756 
   7.6799403    18.402737    15.293913    15.053023 
   24.162422    18.402586    15.296658    15.050964 
  -19.589695      18.4034    15.298949    15.050202 
  0.29826772    18.403431    15.297527    15.052471 
   25.653803    18.403474      15.2988    15.053885 
  -4.4236576    18.404543    15.301054    15.055964 
    76.23673    18.405436    15.304151    15.058275 
    30.14083    18.409377    15.304374    15.060737 
   32.390235    18.414525    15.302489    15.063726 
  -39.749546    18.420968    15.300792    15.065115 
  -1.4425889    18.425821    15.297356    15.068473 
  -30.202431    18.430616    15.291807     15.07295 
   -30.39795    18.434203    15.284162     15.07783 
  -22.120239    18.436574    15.276517    15.083288 
  -14.024903    18.438061     15.26669    15.087974 
  -3.3409935    18.438986    15.257453    15.092862 
  -76.380539    18.439778    15.249436    15.097009 
   29.071193    18.437514    15.242724    15.104065 
  -39.185153    18.436414    15.237106    15.110986 
   17.325167    18.433746    15.231104    15.120025 
    11.25501    18.431771    15.226443    15.129686 
    6.676095    18.430246    15.222754    15.136352 
   27.051833    18.428988    15.219076    15.141477 
   -3.689708    18.428812    15.216569    15.145378 
   71.923445    18.428489    15.214313     15.15072 
  -3.8429963    18.431043     15.21185    15.156441 
  -1.4756512    18.433443    15.209479    15.160777 
   35.932445    18.435784    15.205333    15.166193 
  -31.562488    18.439562    15.199565     15.17197 
   15.269963    18.442078     15.19294    15.176274 
  -35.330821    18.445204    15.184337     15.17924 
   4.0973017    18.446917    15.176037    15.181615 
  -66.583409    18.448795    15.165877    15.181793 
   23.318719    18.448008    15.156655    15.181595 
   27.283356    18.448155    15.145429    15.182808 
  -27.883773    18.449393     15.13524     15.18311 
  -43.874526    18.449516    15.126146    15.185537 
  -42.356843    18.447883    15.117757    15.187696 
  -30.197134    18.444557    15.111688    15.189919 
 -0.90562627    18.440022    15.107722    15.195919 
  -3.7084429    18.435451    15.102794    15.201994 
  -84.026855    18.430732     15.09897    15.208557 
  -13.486918    18.422652    15.092974    15.214658 
  -12.526093    18.414032     15.08697    15.221384 
   50.879598    18.404911    15.081297    15.230412 
  -21.541852    18.397826    15.075921     15.23985 
   27.506495    18.389879    15.070333    15.250805 
   24.278243    18.383032    15.065206    15.263527 
   20.941172    18.377156    15.059423    15.275404 
  -56.958372    18.372118    15.056295    15.289399 
  -11.430988    18.364801    15.055179    15.303654 
  -11.931236    18.357027    15.055385    15.317061 
   7.2006646    18.348776    15.055697     15.32998 
   27.269363    18.340813    15.059126    15.342694 
    14.61543    18.333941    15.061846      15.3539 
    17.15813    18.327654    15.062533     15.36526 
   -11.78689    18.322052    15.061151    15.376765 
  -18.245502     18.31598     15.06084    15.387242 
  -17.688259    18.309177    15.059339     15.39652 
   70.741034    18.301667    15.057297    15.405813 
   51.211153    18.296987    15.053995    15.414955 
   18.052121    18.294355    15.051484    15.423635 
   55.811556    18.292445    15.050863      15.4337 
  -50.300708    18.292767    15.051276    15.442724 
   24.820364    18.291078    15.054221    15.450917 
   79.013066    18.290381    15.055941    15.459269 
  -23.398093    18.292845    15.056571    15.467526 
  -20.076676    18.294373    15.057449    15.474425 
  -38.820097    18.295098    15.058897      15.4803 
    43.69743     18.29427     15.05864    15.486162 
   3.6417712     18.29519    15.059547    15.491592 
  -39.774702    18.296255    15.059566    15.498579 
   34.254657     18.29573    15.061798    15.504037 
   6.9822967    18.296575    15.061262    15.508148 
  -39.707387    18.297699    15.060836    15.511546 
  -68.282495    18.297235    15.060379    15.515404 
  -27.375228    18.294039    15.060775    15.518371 
   2.3176263    18.289749     15.06071    15.520046 
   52.044787    18.285551    15.060609    15.520427 
   21.670513    18.283435    15.060356    15.518215 
  -19.620115    18.282186    15.058425    15.516204 
  -7.0358829    18.280152    15.057498     15.51386 
  -4.8862115    18.277837    15.056349    15.509458 
   10.634288    18.275326    15.055353    15.504413 
  -11.512063     18.27324    15.052743    15.500671 
    22.78912    18.270694    15.048819    15.498565 
     6.49066     18.26906    15.045757    15.497086 
   41.453747    18.267685    15.043908    15.496292 
  -22.776302    18.267969    15.042351    15.495819 
   10.341402    18.267341    15.041385     15.49325 
    72.80785    18.267127    15.039747    15.493239 
   53.696424    18.269825     15.03806    15.491968 
  -25.518369    18.274671    15.036924     15.49342 
   14.693901    18.278497    15.036263    15.493394 
  -28.577621     18.28291    15.036167    15.495418 
  -61.926629     18.28618    15.034443    15.497095 
   20.406285    18.286973    15.030897    15.500975 
   5.4814953    18.288582    15.025654    15.506241 
  -23.978686    18.290411    15.020427    15.511374 
   2.1392973     18.29128    15.013489    15.516629 
  -32.031124    18.292235    15.006883    15.521541 
   3.7825673    18.291909    15.000832    15.525298 
   61.535427    18.291734     14.99482    15.528287 
  -5.9031553     18.29402    14.987626      15.5318 
  -36.825022    18.296071    14.980715    15.534119 
  -10.985482    18.296648    14.975053    15.536693 
  -24.853873    18.296786    14.970848     15.53968 
   23.058119    18.295929    14.966895    15.543493 
  -59.517969    18.295995    14.964248    15.546231 
   2.4502542    18.293681    14.961503    15.547519 
   31.494055    18.291464    14.959431    15.548821 
   18.519429    18.290507    14.956739    15.551005 
  -13.048789    18.290291    14.955704    15.551598 
  -51.191158    18.289553    14.955188    15.552295 
   21.726516    18.286767    14.955843    15.552111 
  -13.106724    18.284851    14.957594     15.55054 
   28.702561     18.28241    14.956914    15.552163 
  -34.281152    18.281117    14.955651    15.552743 
  -46.158324    18.278453     14.95398    15.552264 
  -54.438664    18.273942    14.952377    15.551582 
   24.113232    18.267254    14.952016    15.550026 
   8.6433533    18.261531    14.950796    15.548188 
  -21.464095    18.256153    14.950834    15.545216 
   26.013363    18.249917    14.949614    15.543763 
   29.563588    18.244721    14.949265    15.541467 
   18.426358    18.240708    14.949935    15.539554 
  -4.7054634    18.237432    14.951341    15.539005 
   13.993449    18.233968    14.953481    15.538909 
  -49.772512    18.231063    14.956701    15.538128 
   28.189093    18.226167    14.958483    15.537774 
 -0.10238859      18.2224    14.960483    15.537316 
   32.439541    18.218627    14.962598    15.533999 
   65.753308    18.216153    14.965223     15.52922 
   38.218204    18.216309      14.9687    15.526382 
  -21.621227    18.217993     14.97163    15.524026 
  -13.479806    18.218813    14.973297    15.522689 
   24.068328    18.219093    14.975336    15.519014 
   38.120841    18.220336    14.976011    15.515877 
   19.042431    18.223104    14.977445     15.51219 
  -27.570514    18.226634    14.976789    15.507366 
  -33.608193     18.22906    14.977266    15.503229 
  -4.3605687    18.230143    14.976084    15.499012 
   36.732722    18.231051    14.974706    15.493927 
  -9.4370571    18.233428    14.971379    15.489866 
  -40.279418    18.235428    14.968412    15.487038 
  -40.343911    18.235817     14.96492     15.48331 
  -29.818366    18.234592    14.962253    15.478551 
   34.266708    18.232174    14.960142    15.474089 
  -15.755303    18.231127     14.95726    15.470837 
  -118.59612     18.22945    14.955462    15.465743 
   5.3803371    18.223028    14.954079    15.463325 
    44.74931    18.216823    14.953206    15.462906 
  -29.865251    18.212407    14.952189    15.463551 
  -28.141312    18.206796     14.95154    15.461769 
   23.264308     18.20006    14.948662     15.46052 
  -11.163748    18.194254    14.946347    15.460933 
     35.5302    18.188002    14.945935    15.459963 
   52.589796    18.183171    14.946002    15.459778 
   34.650126    18.180443    14.945016    15.459829 
   19.571231    18.179102    14.944393    15.460679 
   -9.416437    18.178543    14.944391    15.462726 
   8.4556178    18.177608    14.942671    15.462764 
  -8.8829687    18.177011      14.9416    15.461724 
  -41.741965    18.176059    14.939889    15.460936 
   16.643205    18.173437    14.937026     15.46058 
   31.831926     18.17148    14.932461     15.46065 
   33.882825    18.170797    14.927228    15.463578 
   4.9634916     18.17147    14.923372    15.467426 
   33.826875    18.172341    14.921342    15.473732 
   1.8889042    18.174565    14.919789    15.479522 
  -34.281256    18.176864    14.918181    15.486186 
  -3.9807694    18.177792    14.915172    15.492678 
   22.658686    18.178561    14.911559    15.498773 
     41.3182    18.180237    14.908706     15.50785 
   46.009948    18.183565    14.903601     15.51681 
  -28.743204    18.188733    14.898319      15.5262 
  -5.4864888    18.192752    14.891889    15.534304 
  -21.877867    18.196551     14.88565    15.543255 
  -30.096732    18.199475    14.881463    15.552425 
   58.056098    18.201196    14.875912    15.562453 
   12.016586    18.205238    14.868654    15.568863 
   8.9855077    18.209761    14.862974     15.57711 
  -19.485734    18.214644    14.855145    15.585365 
   1.7750195    18.218747     14.84787    15.594316 
   19.396268    18.222921    14.839594    15.602427 
  0.11493944    18.227872     14.83192    15.612715 
   16.571353    18.232826    14.826013    15.623361 
   23.463972    18.238444    14.822011    15.635538 
  -17.981955       18.245    14.819648    15.644972 
   35.945522    18.250837    14.817329    15.655634 
   11.907445    18.258111    14.817116    15.664123 
   -22.21453    18.265862    14.816584    15.670582 
  -14.143342    18.272724    14.813416    15.674329 
  -32.118568    18.279021     14.81162    15.678602 
   44.096422    18.284033    14.808863    15.683335 
   28.571038    18.290808    14.805911     15.68816 
  -11.231424    18.298727    14.803835    15.691165 
   68.107202    18.306196     14.79956    15.694002 
  -26.559585     18.31639    14.796059    15.696798 
  -47.786636    18.325521    14.793083    15.701999 
  -12.429544    18.332741    14.790624    15.706955 
   54.582945    18.339463    14.788361    15.712766 
  -38.860885    18.348369    14.786967    15.716272 
   6.3415036    18.355721    14.786353    15.719357 
   2.3314297    18.363326    14.785259    15.722812 
   18.502547    18.371024    14.784124    15.725015 
  -10.188984    18.379463    14.783764    15.726438 
 -0.52871813    18.387493    14.782728    15.726886 
   2.1116851    18.395503    14.782947    15.726708 
   19.872731    18.403597    14.783181    15.723896 
  -13.850182    18.412486    14.781726     15.72096 
   24.015221    18.420822    14.781596    15.716359 
   17.350445    18.430117    14.780577    15.711285 
  -76.727652    18.440107    14.778435    15.704956 
  -46.789902    18.447028    14.775747    15.700788 
  -8.4313169    18.452077    14.773534    15.697067 
  -30.388396    18.456788    14.769884    15.692529 
  0.81427912    18.460285    14.766965      15.6919 
   8.4270424    18.463814    14.762974    15.693272 
  -41.902929    18.467679    14.759124    15.694229 
    13.40502    18.469869    14.754481     15.69636 
  -4.3969658    18.472595    14.749012    15.698194 
   9.7156449    18.475145    14.744324    15.698167 
  -3.5860782    18.478084    14.739304    15.697111 
  -10.707068    18.480879     14.73313    15.695628 
  -15.321239    18.483246    14.728811    15.695222 
  -2.9078849       18.485    14.724501    15.694654 
  -35.796571    18.486638    14.719013    15.694443 
 -0.64992565    18.486844     14.71408    15.693967 
  -57.776876    18.487024    14.709289    15.694024 
   60.558891    18.484893    14.703371     15.69378 
  -40.325912    18.485184    14.697881    15.693093 
     30.0676    18.483863    14.694414    15.694758 
   59.917591    18.483744    14.690467    15.695661 
   38.361478    18.486021    14.683561    15.698138 
  -13.667058    18.489833    14.674916    15.700107 
  -10.771277    18.493099    14.666727    15.705261 
  -12.295784    18.495933    14.659101    15.709168 
  -62.441854    18.498276    14.652587    15.712923 
  -25.642727    18.498121    14.645024    15.716734 
  -29.006724     18.49694    14.636678    15.720243 
  -9.1757402    18.494599    14.628258    15.723771 
   11.083669    18.491891    14.619917    15.726049 
   16.628311    18.489627    14.611707    15.725939 
    20.92489    18.488027    14.603632     15.72373 
  -18.553566    18.487265    14.594502    15.722205 
  -10.936985     18.48576    14.585059    15.721663 
  -25.481909    18.483818    14.574484    15.722893 
  -12.734549    18.480857    14.565252     15.72466 
   35.689834    18.477386    14.557805    15.726482 
  -28.942615    18.475343    14.550231    15.731457 
   56.633689    18.472142    14.542366    15.735738 
    -20.8168    18.471206    14.534508     15.73694 
  -21.251092    18.469438     14.52642    15.740065 
   10.154426     18.46682    14.518028    15.742571 
    29.53992    18.464608    14.509842    15.745979 
  -15.962735    18.463577     14.50322    15.747983 
   68.225005    18.461908    14.497895    15.749319 
   11.793177    18.462969    14.493592    15.752044 
  -4.8618487      18.4645     14.49215    15.755715 
   16.647624    18.465838    14.489557    15.759347 
  -12.809989    18.467841    14.488891    15.761336 
   14.751146    18.469331    14.489153    15.764726 
   23.036151    18.471412    14.488437    15.766791 
   53.006311    18.474415    14.487709    15.768263 
  -2.2314877    18.479537    14.488754    15.770369 
    3.780839     18.48457    14.488511    15.773535 
  -16.717168    18.489755    14.489832    15.776517 
  -66.672201    18.494271    14.491599    15.779762 
 -0.43040673     18.49612    14.492509    15.783852 
   18.590026    18.497951    14.493239    15.786104 
   -20.88026    18.500527    14.494364    15.787324 
    7.293609    18.502267    14.494657    15.788747 
  -38.462379    18.504299    14.497191    15.789575 
   3.9052271    18.504792    14.498182    15.790359 
  -16.741782    18.505441    14.500544    15.791242 
  -36.703609    18.505421    14.501184    15.792003 
   10.342857    18.503933    14.502135    15.791348 
    23.00602    18.502859     14.50216    15.788322 
  -2.6119793    18.502704    14.500564    15.787268 
  -6.0844757    18.502445    14.499588    15.785473 
  -39.834218    18.501943    14.496185    15.784122 
   28.736093    18.499848    14.494116    15.782962 
  -7.7455699    18.498902    14.491694    15.783737 
  -25.060851    18.497646    14.487575    15.784455 
   12.000633    18.495387    14.481873    15.786851 
   23.528589    18.493609    14.474121    15.789016 
  -5.5447414    18.492772    14.466833    15.790708 
   66.533514    18.491713    14.460244    15.791988 
  -20.443724    18.493315    14.451323    15.793393 
   23.292166      18.4941      14.4414    15.792874 
  -61.340016    18.495816    14.431803    15.794342 
   3.9578032    18.495079    14.422479    15.796956 
   8.7223027      18.4945    14.414146    15.799339 
  -69.396546     18.49427    14.405587    15.801756 
   27.428197    18.491264    14.394929    15.805587 
  -37.412563    18.489355    14.385156     15.80585 
   84.173308     18.48595    14.374763     15.80595 
  -3.2230882    18.485911    14.364954    15.808166 
    21.64983    18.485744    14.355817    15.812458 
   10.682735    18.486443    14.346145    15.816148 
   1.3771213    18.487569    14.335721    15.819473 
   19.548658     18.48875    14.325639    15.822785 
  -29.416723    18.490713    14.317375    15.825183 
  -38.116497    18.491499    14.310537    15.824757 
  -52.721552    18.490761     14.30234    15.824818 
   -48.24519    18.487914    14.294814    15.823718 
  -27.320957    18.483137    14.285499    15.823253 
   51.174037    18.477267    14.276547    15.822772 
   34.866249    18.473444    14.266512    15.821742 
   2.5052819    18.471016     14.25564    15.820563 
    1.638078    18.468688    14.243621    15.818147 
  -5.0334548    18.466426    14.231806    15.817177 
  -19.740685    18.463962    14.222509    15.814944 
  -24.475148    18.460708    14.213427    15.813184 
  -18.923261    18.456476     14.20534    15.810737 
   14.412479    18.451486    14.196923    15.809292 
   42.310032    18.447074    14.189054    15.805669 
   28.690689    18.444353    14.178928     15.80192 
   24.912561     18.44278    14.168734    15.799588 
  -20.551023    18.442204     14.15822    15.795083 
   1.6302338    18.440806    14.148939    15.789727 
  -8.1566523    18.439472    14.139539    15.785502 
  -46.687781    18.437813    14.128624    15.779723 
   36.787827    18.434286    14.117439    15.774214 
   56.127878    18.432231    14.105623    15.769251 
  -17.987767     18.43242    14.094083     15.76482 
  -13.731507     18.43189    14.083068    15.759091 
   15.739702    18.430811    14.073106    15.755903 
   23.311613    18.430362    14.064368    15.753997 
   41.895744    18.430845    14.057002    15.752887 
   22.190822    18.433004    14.048466    15.749216 
   39.465494     18.43605     14.04197    15.742236 
   56.277264    18.440675    14.036384    15.734895 
  -27.338639    18.447551    14.031114    15.728191 
   19.167222    18.453334     14.02713    15.722693 
   1.9043497    18.459883    14.022806    15.716033 
  -23.596336    18.466508      14.0175    15.711174 
    10.94914     18.47219    14.010543    15.706185 
  -33.011419     18.47831    14.004199    15.700363 
   9.2489856    18.483109    13.996723    15.694635 
  -25.603569    18.488278    13.990824    15.690161 
   18.092114    18.492423     13.98667    15.687613 
  -19.936765    18.497291    13.980044    15.684466 
    35.69182    18.501362    13.972285    15.679977 
   27.484268    18.506861    13.966114    15.674461 
  -1.1290424    18.513459    13.959505    15.668288 
    32.08557    18.520013    13.954831    15.661755 
   26.360667    18.527849    13.948919    15.653636 
  -28.512237     18.53674    13.941704    15.644268 
   28.702584     18.54449    13.933623    15.636435 
  -51.133949    18.553389    13.924766    15.626995 
  -9.1087636    18.560242    13.914911    15.615848 
   9.8647163    18.566731    13.905486    15.604236 
   8.1608219    18.573614    13.897756    15.591935 
   35.463492    18.580824    13.889031    15.579464 
  -23.313402    18.589452    13.879816    15.564086 
  -45.813792    18.597148    13.871318     15.54866 
    64.99042    18.603011    13.862026    15.533198 
    47.95194    18.611474    13.854802    15.518161 
   22.684374    18.621855    13.848866    15.504377 
   16.726107    18.633143    13.841601    15.488635 
   3.6715546    18.645101    13.837082    15.474339 
 -0.28196727    18.657205    13.832754    15.462076 
  -11.944474    18.669298    13.827381    15.448126 
   -17.14953    18.680913    13.823217    15.431797 
  -33.469746    18.691842     13.81918    15.414747 
  -3.9999872    18.701433    13.815971     15.39663 
   28.268947    18.710863    13.811573    15.377985 
   19.569632    18.721424    13.806526    15.360509 
  -22.339091    18.732768    13.800745    15.343909 
   -16.77352    18.743218     13.79456    15.329377 
   22.955621    18.752998    13.788091    15.316707 
   -3.408999    18.763695    13.781002    15.305898 
   90.433114    18.774257    13.774039    15.295588 
  -2.6729511    18.788435    13.769119    15.286351 
  -14.061275    18.802507    13.762824    15.276536 
  -28.758692    18.816016    13.755565    15.267519 
  -43.058641    18.828375     13.75211     15.25701 
  -10.861569    18.839012    13.748515    15.249002 
  -9.0451406    18.849214    13.745249    15.239588 
  -57.084182    18.859054    13.742853    15.231455 
  -8.3259558    18.866611    13.740682    15.222329 
  -20.483212    18.873835    13.738558    15.213705 
  -37.018292     18.88024    13.738499    15.204368 
  -40.325737    18.885163    13.738269    15.194889 
  -6.2129197    18.888474    13.738711    15.185017 
    1.419112    18.891536    13.739142    15.175959 
  -7.0529799    18.894656    13.740452    15.165827 
   3.5607816    18.897492    13.740612    15.155234 
  -18.081068    18.900472    13.740309    15.143939 
  -6.1149875    18.902728    13.740774    15.132146 
 -0.63885006    18.904739    13.739456    15.123366 
  -24.142794    18.906725    13.739492    15.113266 
   4.3664051    18.907746    13.740192    15.101887 
  -55.910765    18.908941    13.743079     15.09175 
  -51.282005    18.907899    13.747366     15.08106 
  -4.0647533    18.904806    13.751483    15.071276 
   12.250757    18.901551    13.755915    15.063416 
  -18.218737    18.898785    13.761881    15.052769 
    -54.2931    18.895291    13.768611    15.040724 
  -5.4444861    18.889626    13.773312    15.028408 
  -14.086697    18.883742    13.776193    15.015102 
  -51.629685    18.877295    13.778667    15.004872 
   6.7886162    18.868783    13.781308    14.993297 
  -35.826855    18.860542    13.785193    14.983164 
   17.904871    18.850868    13.792149    14.972572 
   19.929456     18.84191    13.799214    14.961895 
   19.416223     18.83375    13.805498    14.951091 
   58.854326    18.826366    13.814542    14.939717 
  -64.834826    18.821337    13.824114     14.92963 
  -7.8909816    18.813714    13.833448    14.921134 
   -8.331666    18.805775    13.843375    14.913527 
  -70.774974    18.797503    13.852781    14.906916 
    66.16318      18.7864    13.862344    14.898779 
  -17.056641    18.777944    13.873086    14.890382 
   26.134112    18.768805    13.883207    14.882876 
   47.820196    18.760712    13.893573    14.877481 
  -33.353137    18.754531    13.904592    14.869295 
  -31.219139    18.747017    13.914814    14.860103 
   14.431123    18.738253    13.923674    14.852032 
   34.326334    18.730067    13.931309    14.841781 
  -34.299841    18.723254    13.941118    14.831347 
  -6.8478049    18.715069    13.953291    14.819652 
  -18.878363     18.70661     13.96609    14.807978 
  -41.898221    18.697396    13.978428    14.796328 
  -6.5954276    18.686506    13.988314    14.783864 
   61.745312    18.675352    13.997557    14.772749 
  -45.389534    18.666668    14.007565     14.76165 
  -20.305769    18.656169    14.018473    14.749026 
  -15.120969    18.644857    14.027533    14.736571 
   45.667249     18.63294    14.035986    14.724857 
   47.591531     18.62285    14.045978    14.711795 
  -3.4943559    18.614664    14.057629    14.699468 
   5.9851272    18.606338    14.068348    14.687465 
   -14.87011    18.598251    14.078246    14.677019 
   30.010882    18.589569    14.089136     14.66498 
    -20.0308    18.582088    14.100049    14.653468 
   16.460876    18.573806    14.111335    14.641291 
    33.95008    18.566182    14.120132    14.630295 
    38.75223    18.559916    14.129187    14.619069 
   7.9951744      18.5552    14.138251    14.607807 
  -3.0346964    18.550804     14.14693    14.596562 
   25.155977    18.546287    14.157425    14.584803 
    35.70382    18.542776    14.168991    14.573563 
   2.5412592    18.540693    14.179934     14.55986 
  -2.6167868    18.538712    14.191172    14.548098 
   3.7789572    18.536626     14.20301    14.536213 
  -33.290492    18.534691    14.214003    14.523144 
  -7.1687711    18.531424    14.224537    14.511424 
   43.479106    18.527871    14.235434    14.499918 
  -14.062487    18.526057    14.247056    14.488647 
 -0.36397451    18.523681    14.258269    14.479249 
   59.110741     18.52129    14.270035    14.469019 
  -9.4678201    18.521263     14.28145    14.461124 
  -32.877514    18.520857    14.292133    14.454403 
   3.3152768    18.519137    14.302539    14.448587 
  -52.696693    18.517549    14.313461    14.446004 
   10.640078    18.513853    14.324179    14.441305 
   42.562523    18.510583    14.334802    14.435688 
    3.484141    18.509016    14.343953    14.431063 
   44.123218    18.507587    14.352421    14.426643 
   31.197922    18.507924    14.360874    14.420487 
   40.395047    18.509509    14.368376     14.41377 
  -34.966989    18.512709    14.374821     14.40624 
  -16.222532    18.514511    14.380695    14.397879 
 -0.47717109    18.515663    14.385992    14.389264 
   29.265307    18.516797    14.393071    14.383058 
  -36.659844    18.519102     14.39858    14.378212 
  -15.663251    18.519939    14.405949      14.3739 
    13.72474    18.520151    14.414019    14.369154 
  -32.742248    18.520911     14.42234    14.363846 
   7.1352111    18.520362    14.431266    14.358093 
  -12.455106    18.520098     14.44122    14.352584 
   3.6812896    18.519336    14.451506      14.3461 
  -8.4555885    18.518721     14.46205    14.339217 
   5.0704751    18.517768    14.474236     14.33151 
   9.4900719    18.517018    14.486268    14.322808 
   14.286781    18.516647    14.496847    14.314038 
   13.495794    18.516848    14.506386    14.305444 
  -7.3629034    18.517589    14.516045    14.298219 
   31.432789    18.518035    14.525587    14.289766 
  -40.829032    18.519738    14.537813    14.280264 
   12.363491    18.519809    14.550395    14.271753 
  -36.421751    18.520373    14.561387    14.264266 
  -9.9191464    18.519481    14.571732    14.257674 
   17.764315    18.518192    14.580948    14.250567 
   42.283597    18.517614    14.590144    14.244167 
   11.395277    18.518727    14.598467    14.237058 
   13.697073    18.520296    14.606962    14.229292 
 -0.32727338    18.522413    14.612953    14.223223 
  -56.381858    18.524517    14.619362    14.216432 
   12.813581    18.524365     14.62475    14.211076 
  -40.089425    18.524726    14.627688    14.206427 
   16.361161    18.523484    14.630124    14.202771 
  -33.193291    18.522896    14.631623    14.198065 
   -2.094205     18.52098    14.633359    14.192985 
   -4.251704     18.51898    14.634701    14.185797 
  0.19206375     18.51681    14.637361     14.17771 
  -53.181757    18.514648    14.640001    14.169759 
   -13.43769    18.510359    14.640685    14.164108 
  -32.659354    18.505532    14.641054    14.159567 
   8.5727354    18.499399    14.640837    14.154827 
  -39.431321    18.493609    14.639387    14.148496 
   1.9990152    18.486241    14.639823    14.142736 
  -7.4354278    18.478954    14.638926    14.136182 
  -17.631671    18.471369     14.63798     14.13001 
   27.599722    18.463078    14.637534    14.124301 
   17.644922    18.455892    14.639609     14.11981 
   1.8076196    18.449412    14.639835    14.115641 
  -1.2873568    18.443003    14.641035    14.110518 
   4.3407694    18.436544    14.640268    14.104236 
   -32.35841    18.430258    14.640063    14.098505 
  -32.767897    18.422677    14.639293    14.092867 
   44.473149    18.413786    14.639554      14.0882 
   32.094702    18.406674     14.63819    14.083095 
  -33.656838    18.400846    14.638699    14.080125 
  -12.417357    18.393671    14.637801    14.076169 
  -30.697405       18.386    14.636185    14.072146 
   30.549668    18.377101    14.635881    14.068797 
   48.807461    18.369423    14.637788    14.066208 
  -20.170021    18.363698     14.63935    14.063008 
  -11.528261    18.357167     14.64037    14.060017 
   18.058423    18.350174    14.640065    14.056541 
  -11.393141    18.343903    14.639912    14.052328 
    4.022212    18.337177    14.642853    14.047697 
   39.298097    18.330612    14.643178    14.043536 
   18.150287    18.325618    14.644564    14.040317 
  -17.847199    18.321351     14.64276    14.038889 
   44.918674    18.316369    14.641452    14.038938 
   20.081921    18.313185    14.640302     14.03877 
   26.905742    18.310804    14.641283    14.038565 
   24.516327    18.309498    14.644295    14.038368 
   24.865106    18.309174    14.646929    14.036508 
  -33.766467    18.309844    14.650653     14.03366 
  -9.9060446    18.309164    14.654059    14.029513 
   23.758473    18.308087    14.659147    14.027288 
    28.48467    18.307961    14.663826    14.027367 
   -5.165432    18.308974    14.665661    14.026677 
   55.619602     18.30978    14.663987    14.025411 
  -68.321957    18.312811    14.662996    14.023072 
   18.887083     18.31311    14.662251    14.019937 
   3.0166564    18.314163    14.659888    14.014877 
  -20.046526    18.315338    14.658577    14.009928 
  -12.159299     18.31571    14.658198    14.003414 
   22.051972    18.315597     14.65853    13.997628 
  -28.957943    18.316365    14.658713    13.992469 
  -61.384166    18.315975     14.66045    13.984949 
  -21.407142    18.313129    14.661141    13.976625 
  -28.270279    18.309428    14.662944    13.968913 
  -2.2459656    18.304595     14.66477    13.961171 
   58.558238    18.299673     14.66521    13.951284 
  -26.284022    18.297093    14.665178    13.943909 
   -17.37825    18.293462    14.662917    13.937223 
  -1.7947733    18.289135    14.660362    13.931943 
   22.832835    18.284737     14.65997    13.925577 
  -41.450118    18.281252    14.657983    13.919915 
   49.995366    18.276109    14.655212    13.914897 
   4.5568531    18.272966     14.65216    13.908393 
   14.305621    18.270005    14.650038    13.902085 
   -36.27256    18.267616    14.647393     13.89488 
   5.6734495    18.263777    14.645059    13.887284 
  -2.7193283    18.260164    14.642502    13.881334 
  -28.737964    18.256443    14.641101    13.877927 
   21.904319    18.251572    14.638926     13.87463 
   82.754077    18.247577    14.635808    13.870742 
  -26.309159    18.246892    14.634231    13.866666 
   22.152527    18.245156    14.633626    13.864203 
   62.158643    18.244305    14.633218    13.861881 
  -28.331091     18.24594    14.631897    13.861069 
   5.3154668    18.246442    14.630555    13.858951 
  -31.941674    18.247157    14.629031    13.856458 
  -4.4464359    18.246595    14.627818    13.852621 
   33.675621    18.245854    14.624038    13.849432 
  -34.757324     18.24646    14.619943    13.849043 
   47.104621    18.245676    14.615158    13.849816 
   18.611376    18.246777    14.613229    13.848159 
   0.7049634    18.248621    14.611451    13.848098 
  -39.052527    18.250494    14.607552    13.848139 
   15.448516    18.250805    14.602856    13.846405 
   -5.577548    18.251734    14.597144    13.842737 
   57.842294     18.25244    14.591452    13.840588 
  -71.877272    18.255459    14.582342    13.839047 
   41.972886    18.255603     14.57097    13.836477 
   2.7269741    18.257426    14.561279    13.835456 
   -9.993273    18.259359    14.551364    13.835452 
  0.66288144    18.260891    14.540884    13.836711 
   28.583724     18.26245     14.52984    13.839551 
  -28.562941    18.265153    14.518697    13.842336 
  -35.833799    18.266712    14.509012    13.844823 
    48.77171    18.266839    14.498036    13.846688 
  -47.074885    18.268916    14.486326    13.848179 
  -37.649808    18.269111    14.476358    13.849951 
  -4.0271195    18.267799    14.467356    13.852953 
    43.60939    18.266326    14.457804    13.856896 
  -31.514977    18.266598    14.449621    13.859043 
   -20.92632    18.265609    14.443023    13.860813 
  -15.036802    18.263783     14.43634    13.860977 
   15.698634    18.261356    14.428793    13.861604 
   50.061802    18.259556    14.421355    13.861533 
  -71.150226    18.259759     14.41371    13.862861 
  -23.169289    18.257116    14.407651    13.864149 
  -16.618238    18.253547    14.401561    13.864853 
   18.268185    18.249312    14.391873    13.865145 
   40.444341    18.245808    14.384996    13.863727 
   48.213495    18.243922    14.378018    13.859681 
   22.707196    18.243965    14.372011    13.856214 
   9.4121261    18.244916    14.366422    13.852649 
  -19.050213    18.246243    14.359744    13.847845 
  -6.6011045    18.246808     14.35348    13.841653 
  -3.8845409    18.247109    14.347806    13.836826 
  -47.583014    18.247255    14.343584    13.831662 
   32.428245    18.245498     14.33872    13.826935 
  -3.5338342    18.245037    14.333904     13.81998 
   17.151878    18.244436    14.330855    13.813954 
   8.4475693     18.24452    14.329004     13.80776 
  -17.337694    18.244942    14.330469    13.800055 
   15.580731    18.244671    14.331207    13.792159 
   -74.34844    18.245023    14.335134    13.783263 
    14.87202    18.242401    14.339126    13.775328 
   24.121461    18.240374    14.343895    13.767524 
   6.0589212    18.239312     14.34942    13.759562 
  -24.735496    18.238492    14.354571     13.75146 
  -13.358092    18.236683     14.36027    13.743557 
   45.060812    18.234339    14.369075    13.737024 
  -14.582722    18.233798    14.378084    13.730655 
    8.101507    18.232674    14.388092    13.723712 
  -53.646348    18.231873    14.399875    13.717149 
   6.2970207    18.228927     14.40865    13.708673 
  -12.869466    18.226233    14.414119    13.697947 
   -9.404447    18.223024    14.419208    13.687294 
  -22.681966    18.219438    14.424072    13.676585 
   -45.24278    18.214946    14.426738    13.665006 
   35.724272    18.208643    14.430184    13.653353 
   22.754971     18.20377    14.432185    13.641748 
  -39.223006    18.199807    14.434611    13.631438 
  -1.9802677    18.194275    14.436449    13.621396 
      12.618    18.188664    14.439061    13.611813 
   27.645273    18.183557    14.441711     13.60458 
  -1.0060194    18.179556    14.442115    13.596882 
    29.61712    18.175515    14.442927     13.58784 
   45.441306    18.172659    14.444132    13.581274 
   17.717963     18.17162    14.445429    13.574107 
  -4.5489366    18.171291    14.445684    13.569964 
  -7.0630868    18.170779     14.44557    13.567068 
    32.39124    18.169984    14.446824    13.564546 
   3.9676618    18.170485    14.448657    13.560989 
   -34.06819    18.171145    14.451292    13.557075 
   7.1539986    18.170443    14.454605    13.552341 
   7.8600467    18.170026    14.457074    13.547863 
   22.699041    18.169924    14.461576    13.542352 
  -22.560006     18.17073    14.466905    13.535017 
   -34.87929    18.170633    14.470043    13.526619 
  -45.801031    18.169141    14.471501    13.517148 
   27.015631    18.165817    14.473825    13.506795 
  -16.113466    18.163574     14.47456    13.496169 
   14.397348    18.160686    14.474506    13.487807 
  -2.4947169    18.158374    14.474652    13.480447 
   41.167926    18.155963    14.475299    13.473429 
   19.426828    18.155198    14.473932    13.464516 
   13.132834     18.15521    14.471318    13.454929 
   2.1801752    18.155747    14.467064    13.444822 
    -15.9912    18.156372     14.46678    13.434026 
  -6.7890865    18.156357    14.465037    13.421669 
  -8.0041739     18.15607    14.462199     13.40843 
   33.029311    18.155464     14.45802    13.396479 
  -43.746434    18.156178    14.453021    13.386632 
  -36.258196    18.155143     14.44969    13.378204 
   8.3694074    18.152657    14.445901    13.371173 
   -74.10207    18.150506    14.443008    13.363491 
  -3.8407333    18.145391     14.43981    13.356052 
  -22.611977    18.140122    14.436277    13.346535 
   20.946084    18.133949    14.433727    13.338591 
  -28.031699    18.128614    14.430777    13.332548 
   26.558756    18.122157    14.427433    13.326641 
   16.947001    18.116763    14.422868    13.321178 
  -39.198118    18.112046    14.418557    13.316187 
  -7.0304016    18.105762    14.413495    13.313037 
  0.56500651    18.099197    14.409296    13.312568 
   31.261697    18.092654     14.40505    13.310945 
 0.034130412    18.087361    14.400044    13.310712 
  -9.8210964     18.08207    14.396473    13.310429 
   10.293421    18.076386    14.390581    13.308228 
   10.161783    18.071114    14.387185    13.306742 
  -29.665985    18.066248    14.382462    13.305676 
   10.015826    18.060196    14.378949    13.303123 
  -40.635857    18.054544    14.373846    13.301589 
   33.221077    18.047267    14.368439    13.299676 
   17.775705    18.041319    14.362597    13.296654 
   52.108923    18.036082    14.357017    13.294511 
   12.023091    18.032929    14.351079     13.29161 
   -10.36131    18.030257    14.345789    13.289115 
   7.2349721     18.02717    14.342001    13.287108 
   5.2336249    18.024373    14.336084    13.284272 
   27.709213    18.021785     14.33101    13.281094 
  -51.429303    18.020306    14.324353    13.276462 
  -17.118265     18.01677    14.318001    13.272007 
   38.261013    18.012548    14.312657     13.26771 
   33.266163    18.009858    14.306696    13.262797 
  -6.8497181    18.008497    14.299862    13.258585 
   57.354804    18.006863    14.293563    13.255446 
   22.992448    18.007523    14.290008    13.251367 
   -43.61516    18.009103    14.286868    13.247725 
   25.244759    18.008938    14.280505    13.245925 
      25.909    18.009783    14.275994    13.244109 
   18.557543    18.011664    14.272607     13.24217 
  -30.687675    18.014288    14.269775    13.237828 
   41.892473    18.015684    14.267178    13.232604 
  -4.2873254    18.018756    14.264724    13.228032 
   91.994813    18.021656     14.26292    13.222094 
   -22.51889    18.028236    14.261051    13.217734 
   64.352892    18.033916    14.259903    13.215342 
   25.328158    18.042169    14.258409      13.2141 
    55.56022    18.051436    14.257442    13.213712 
   25.581074    18.062925    14.256964    13.212327 
   6.1187286    18.075437    14.255059    13.211014 
   -25.41583    18.088194    14.251549    13.208753 
  -11.254391    18.099934    14.249769    13.206499 
  -31.020673    18.111224    14.246884     13.20628 
   40.288318    18.121274    14.245228    13.205135 
  -40.896423    18.132935    14.245054     13.20673 
  -3.5673848     18.14296    14.245025    13.208447 
   2.8665489    18.152842    14.245093    13.209735 
  -54.847379    18.162839    14.246316    13.210996 
   7.4607302    18.170642    14.246383    13.211807 
   1.1299813    18.178743    14.245494    13.212063 
  -30.694325     18.18689    14.245355    13.214413 
  -37.699252    18.193809    14.246117    13.218026 
    54.55072     18.19922    14.247823    13.222419 
  -9.0390574    18.206813     14.24839    13.226824 
   39.463484    18.214045    14.248997     13.23247 
  -42.155632    18.222854    14.250619    13.237159 
  -19.604634    18.229978    14.252639    13.242242 
   17.694566    18.236318    14.254243    13.246222 
   25.585917    18.243365    14.255783    13.250745 
   4.5799237    18.251436    14.254975    13.256684 
  -17.212642     18.25969    14.251136     13.26154 
   38.368574    18.267255     14.24618    13.266883 
  -33.729124    18.276356    14.242127    13.270222 
   30.550621    18.284107    14.235839    13.271761 
   45.134531     18.29308    14.230249    13.272937 
  -29.863199    18.303858    14.224489    13.275664 
   13.934035    18.313442      14.2183    13.278557 
  -27.494692    18.323583    14.212965    13.282707 
   17.826543    18.332625    14.209155    13.288185 
   27.955291     18.34238    14.205126    13.293125 
   4.3266881    18.353252    14.200803    13.298964 
   23.717416    18.364298    14.196287    13.306458 
  -33.847155    18.376293    14.192082    13.315677 
  -6.6697646    18.386933     14.18981    13.325606 
  -68.388496    18.397307    14.188943    13.335167 
   22.304565    18.404946    14.190394    13.346559 
  -2.0600384    18.413476    14.190283    13.356394 
  -49.441428    18.421924    14.192851    13.362691 
   28.197321    18.428395    14.194082    13.366753 
   18.468446    18.435993    14.195868    13.369744 
  -20.321268     18.44433    14.198538    13.369694 
  -20.395446    18.451854    14.201292    13.367691 
    39.39802    18.458563    14.205009    13.367053 
   20.943694    18.466847    14.208189    13.363777 
   37.907442    18.475969    14.208409    13.359086 
  -21.528692    18.486607    14.209461    13.353887 
   58.785688    18.496385    14.209664    13.347335 
   59.811704    18.508513    14.207613    13.343007 
   8.8363198    18.523034    14.205829    13.339307 
  -53.039167    18.537909    14.203618    13.335671 
   37.640644    18.550662    14.200717     13.33218 
   6.5269335    18.564921    14.197119     13.32681 
   37.604861     18.57944    14.191763    13.322281 
   -53.21329    18.595464    14.187587    13.319178 
  -46.730511     18.60936    14.182984    13.317159 
  -46.988244    18.621386    14.177789     13.31527 
  -4.6425188    18.631533    14.174107    13.310917 
  -13.188663    18.641493    14.170335    13.305831 
    42.34535    18.650927     14.16892    13.300668 
   17.126798    18.662054    14.168397    13.295318 
   51.520018    18.673866     14.16899      13.2901 
   0.4742002    18.687739    14.170699    13.282854 
  -20.885719    18.701631      14.1734    13.275808 
  -31.062559    18.714688    14.174677    13.270251 
   26.785522    18.726502    14.176987    13.263887 
  -41.557554    18.739388    14.178448    13.259495 
   2.3555743    18.750611    14.180567    13.253721 
   5.1869346    18.761928     14.18237    13.248732 
  -15.780098    18.773453    14.185886    13.244457 
   9.8371331    18.784347    14.187667    13.241444 
  -18.693851    18.795634    14.189147    13.237709 
   7.8542147    18.806174    14.188821    13.234102 
  -32.949175    18.817027    14.188044    13.228702 
   25.072491    18.826563    14.187097    13.222027 
   21.390172    18.837101    14.187221    13.216059 
  -21.747011    18.848496    14.188728    13.209007 
 -0.79253054     18.85902    14.190253    13.201004 
    58.70409    18.869512    14.189136    13.191181 
  -74.191851    18.882353    14.187345    13.177559 
  -21.427213    18.892226    14.184839    13.162382 
   10.732905    18.901242    14.181126    13.147009 
  -14.857393    18.910688    14.177225    13.130428 
  -30.617779    18.919539    14.175249    13.113701 
  -10.731323    18.927165    14.172261    13.098684 
  -32.660109    18.934362    14.169626    13.081654 
   23.069506    18.940252    14.165654    13.067143 
  -36.474116    18.947066    14.163531    13.053721 
  -39.699784     18.95242    14.160895    13.040725 
    2.350665    18.956187    14.158739    13.027907 
  -47.442391    18.960047    14.153756    13.014389 
   2.1030867     18.96201    14.150553    12.998874 
   12.224427    18.964057    14.148751    12.982313 
   -31.00993    18.966593    14.145597    12.966797 
  -3.1679056    18.967888    14.144126    12.952147 
  -37.857509    18.969057    14.144035    12.937422 
  0.37616073    18.968712    14.144921    12.924624 
   12.533815    18.968381    14.144682    12.911802 
   51.994927    18.968552    14.143444    12.899492 
  -11.722218    18.970803    14.141094    12.887291 
   -15.97568    18.972584    14.138591    12.877105 
  -24.862471    18.973727    14.135257    12.866356 
   25.400778    18.973875    14.131815    12.856306 
   14.724984     18.97504    14.129843    12.845843 
  -13.840629    18.976793    14.127922    12.834386 
   82.245078    18.977993    14.124187     12.82528 
  -4.6811858    18.982482    14.119464    12.816507 
  -55.151043    18.986784    14.111791    12.809525 
  -38.262021    18.988881    14.106604    12.803234 
  -4.1744328    18.989446    14.100357    12.796605 
  -43.708167    18.989845    14.093416    12.788422 
   11.518459    18.988495    14.087336    12.782946 
   17.077902    18.987606    14.080932    12.779518 
   -6.131356    18.987401    14.077046    12.777065 
   52.553473     18.98695    14.074659     12.77521 
  -17.535225    18.988601    14.072694    12.772777 
  -57.819992    18.989551     14.07206    12.768746 
   10.104657    18.988187     14.07035    12.762993 
  -30.892119    18.987229    14.069488    12.758051 
   57.538559    18.985034    14.067938    12.754771 
   2.7886086    18.985141    14.066908    12.749746 
  -42.692141    18.985359    14.067638    12.742849 
  -38.631776     18.98387    14.066307    12.736724 
  -37.163274    18.980836    14.065004    12.730035 
  -16.475994    18.976315    14.064779    12.722039 
   36.942646    18.971135    14.063659    12.712462 
   40.126093    18.967433    14.063091    12.703708 
   12.082822    18.965335    14.062384    12.696288 
  -23.639297    18.963721    14.062477    12.690684 
  -29.001521    18.961162    14.061787    12.685291 
   26.069801    18.957442    14.060853    12.678701 
   19.855039    18.954765    14.059755    12.672711 
  -53.363008    18.952883    14.058519    12.668823 
 -0.37117914    18.948866    14.057298    12.665034 
   1.9430398    18.944834    14.056452    12.660356 
   1.5021921    18.940879    14.052899    12.655654 
    38.90957    18.936985     14.04873    12.652203 
  -34.906529    18.934648    14.045512    12.645656 
    1.178371    18.930914    14.042337    12.636297 
   -1.154149    18.927227    14.039294    12.626326 
  -11.752883    18.923494    14.037011    12.618522 
  0.19240819     18.91929     14.03527    12.612401 
  -64.407568    18.915095    14.035664    12.605282 
   19.763255    18.908323    14.037291     12.59844 
    42.62409    18.902342    14.040477    12.591455 
   27.550358    18.898066      14.0444    12.585075 
  -26.027896    18.894891    14.048351    12.576521 
  -18.001178    18.890676    14.050985    12.568476 
   2.8380799     18.88574    14.054078    12.561522 
   21.578479    18.880919     14.05934    12.554881 
  -50.869004     18.87696    14.063298    12.548694 
  -24.192748    18.870966    14.067735    12.544327 
  -18.794453    18.864005    14.072993    12.540505 
  -76.295861    18.856292    14.078097    12.536018 
   42.667064    18.845527    14.084677    12.532597 
   23.883549    18.836469    14.092544     12.52953 
    54.01161    18.828366    14.099687    12.528784 
   29.998232    18.822424    14.104963    12.526497 
  -13.327831    18.817681    14.109853    12.524225 
  -6.7957751    18.812406    14.113189    12.521382 
  -12.563187    18.806858    14.116935    12.517059 
  -14.201511    18.800808    14.118693    12.515962 
    7.656279     18.79419    14.118652    12.516269 
   38.957151    18.787879    14.117792    12.515302 
   3.2403498    18.783125    14.114837    12.513906 
   10.528512    18.778501    14.112025    12.513501 
   2.8510049    18.774299    14.109455    12.511064 
   20.575339     18.77021    14.108485    12.508655 
   4.9426329    18.766944    14.106583    12.505123 
   2.9574909    18.763877    14.103752     12.49841 
   36.634988    18.760927    14.099414    12.490346 
   -71.44119    18.759443    14.094507    12.481519 
   -19.04493    18.755101    14.090036    12.472226 
   2.9958008    18.749997    14.085829    12.463646 
   36.003365    18.745013    14.080209     12.45384 
  -20.446956     18.74147    14.076855    12.443251 
   41.277056    18.737108    14.073841    12.432535 
  -27.906742    18.734398     14.07204    12.422072 
   -30.36586    18.730571    14.068327    12.410803 
  -9.4560551    18.725529    14.066039    12.400233 
    31.83226     18.72011     14.06465    12.391134 
   34.091657    18.715963     14.06312    12.381285 
   34.509074    18.713181    14.061947    12.374311 
  -4.1298799    18.711778    14.058249    12.366713 
    25.16651    18.710211    14.054789    12.360194 
 -0.81577737     18.70965    14.050233    12.353031 
  -15.259234    18.709057    14.043923    12.344974 
   4.5607077    18.707853       14.038    12.335338 
  -26.264997    18.706831     14.03029    12.325794 
   5.4074141    18.704759    14.020916    12.316005 
  -29.169657    18.702903    14.011028    12.305014 
  -8.4401321    18.699881    14.004324    12.292719 
   47.908804    18.696521    13.999566    12.281335 
 -0.98649966    18.695077    13.993189    12.269025 
  -24.241893    18.693594    13.987299    12.255929 
   16.154633    18.691141    13.983679    12.243456 
  -6.6563695    18.689334    13.978073    12.228962 
   2.0447725    18.687261    13.970639    12.215281 
  -30.348386     18.68527    13.963208    12.200866 
   24.559779    18.682065    13.955987     12.18674 
  -26.009305    18.679842    13.947857    12.170168 
   14.136832    18.676579    13.938794    12.152703 
   49.576279    18.673881    13.929797    12.135022 
  -5.0327588    18.673167    13.920214    12.116922 
   32.190751    18.672251    13.911142     12.10003 
   21.239507    18.672623    13.900236    12.086934 
   -11.92019    18.673844    13.889683    12.072624 
  -1.4907428    18.674588    13.879366    12.057573 
  -24.579575    18.675273    13.869356    12.043047 
   31.768355    18.674975    13.861461    12.030105 
   13.124583    18.675947    13.853045    12.017518 
  -8.3755444    18.677445    13.843139    12.003753 
  -10.794856    18.678607    13.834593    11.988707 
  -23.894018    18.679338     13.82714    11.975421 
   13.026914    18.679113    13.820226    11.962338 
  0.56021626    18.679409    13.813229     11.95173 
   6.8333674    18.679727    13.807848    11.940678 
   23.891228    18.680319    13.802882    11.929198 
   34.638499    18.681866    13.798937    11.917985 
   48.064606    18.684799    13.795512    11.907568 
   79.656662    18.689654    13.790937    11.898982 
  -17.137988    18.697696    13.786874    11.889101 
   15.429198    18.705052    13.783251    11.878586 
  -31.156281    18.713025     13.77903    11.867576 
   14.366794    18.719753    13.775122    11.858238 
  -24.273928    18.727054    13.772052    11.848836 
  -35.613543    18.733385    13.770431    11.839043 
  -45.601303    18.738291    13.768767    11.828695 
  -32.633644    18.741374    13.765506    11.817861 
  -1.4103215     18.74315    13.762916    11.807517 
   -53.82811    18.744871    13.760071    11.798485 
  -10.975619    18.744438    13.758601    11.789499 
   69.824159    18.743567    13.755399    11.780604 
  0.13584102    18.745488    13.754085    11.771446 
   -1.125211    18.747415    13.752408    11.761311 
  -18.871758    18.749296    13.752173    11.753674 
   28.006082    18.750423    13.752484    11.748181 
  -19.523059     18.75267    13.752064    11.742896 
  -6.6843032    18.754136    13.751052    11.736904 
   17.734586    18.755335    13.748655      11.7313 
  -1.5651993    18.757243     13.74512    11.726089 
   -30.70329    18.759089    13.742379    11.721849 
   32.077998    18.759706    13.738397    11.718327 
   20.815645    18.761607    13.732827    11.714741 
   70.028237     18.76434      13.7287    11.709454 
   -31.06284    18.769874    13.723733    11.705621 
  -49.892667    18.774166    13.718866    11.702171 
   23.060677    18.776462    13.713035     11.69953 
   68.267903    18.779681    13.704884    11.697007 
  -27.803391     18.78563    13.695621    11.692671 
   -42.99417    18.790467    13.689067    11.689009 
   32.362449    18.793584    13.682922    11.683334 
  -4.8056836    18.797996    13.678087    11.678809 
  -14.767555    18.802216    13.671731    11.673884 
   33.453098    18.805845    13.666583    11.668573 
   20.599425    18.810812    13.660984    11.665627 
  -35.415133    18.816603    13.656463    11.661063 
  -1.7389982    18.820977    13.651585    11.653998 
   35.187255    18.825282    13.645826    11.645502 
   -37.71079    18.830994    13.638825    11.637719 
   -24.90548    18.835198    13.631277    11.629982 
   10.774157    18.838406    13.624137    11.624094 
  -3.9124018    18.842044    13.616787    11.617386 
   21.922512    18.845526    13.608416    11.610721 
  -43.575174    18.849885    13.602677    11.605152 
   -8.640115    18.852501    13.597944    11.598741 
  0.48117198    18.854772    13.594708    11.594573 
  -25.543833    18.857062    13.591973    11.591601 
  -33.363122    18.858329    13.587946    11.589241 
  -11.942014    18.858263    13.582043    11.587953 
   45.649466    18.857719    13.574812    11.585451 
   6.2620872       18.859    13.568029    11.584384 
  -11.260113    18.860532    13.561808    11.582968 
   40.256448    18.861614    13.556003    11.583303 
   31.529798    18.864306    13.550864    11.584112 
  -10.713423    18.868259    13.548038    11.584414 
  0.87758488    18.871784    13.546521    11.584648 
   29.753381    18.875344    13.545911    11.583559 
  -2.8600432    18.880094    13.546939    11.583403 
  -30.089363    18.884729    13.548363    11.581806 
   50.923598    18.888161    13.550631    11.581263 
   46.026018     18.89363    13.552686    11.580635 
  -22.180384     18.90094    13.558119    11.579644 
  -23.976853    18.907363    13.562984    11.579565 
    18.25277    18.912826     13.56878    11.577726 
   -17.02015     18.91902     13.57462    11.578125 
   21.943444    18.924533     13.57998    11.579376 
   15.681815    18.930924    13.584465    11.581861 
   43.394817    18.937942    13.590527    11.584867 
   -44.33699    18.946695    13.595023    11.585991 
   38.257692    18.953676    13.599556    11.587566 
  0.36080508    18.962186    13.602607    11.591027 
  -5.4546434    18.970711     13.60531    11.595118 
   26.800505    18.979018    13.607662    11.599351 
  -7.4872787    18.988397    13.611073    11.601918 
   -3.562799    18.997476    13.612898     11.60554 
  -29.567617    19.006413    13.614969    11.609616 
  -7.2336857    19.014167    13.618965     11.61396 
  -20.297573    19.021632    13.622861    11.617371 
   -20.63385    19.028285     13.62482    11.619404 
   27.972219    19.034112    13.626554    11.622801 
  -15.115747    19.041059    13.628491    11.626988 
   47.594061    19.047401    13.630101    11.629263 
  -37.766278    19.055646    13.630822    11.631132 
   7.3417902    19.062381     13.63327    11.633552 
  -40.800338     19.06941    13.635465    11.637014 
  -17.198483    19.074806    13.638623    11.638949 
  -32.146843    19.079515    13.641789    11.642387 
  -19.269835    19.082938    13.645317    11.644844 
   33.098824     19.08559    13.647475    11.645457 
    27.83024    19.089565    13.650038    11.647808 
   49.385088    19.094655    13.653716    11.650579 
  -5.0499249    19.101719    13.657435    11.652704 
  -12.538508    19.108582    13.662197      11.6535 
    25.68409    19.114943    13.666579    11.654714 
  -5.6329414    19.122331     13.67143    11.657265 
   14.253053    19.129494       13.677    11.660717 
   37.610481    19.137227    13.682396    11.662684 
  -21.288321    19.146465    13.688644     11.66496 
  -12.077309    19.154851    13.695828    11.668711 
   -38.70026    19.162754    13.704827    11.673431 
   59.984291    19.169109    13.713094    11.678871 
  -34.301713    19.177863    13.720618    11.683954 
  -4.9261184    19.185245    13.728496    11.688746 
   6.9543709     19.19243    13.734825    11.691729 
   26.346793    19.199894     13.74166    11.694324 
   49.974337    19.208411    13.746856    11.696884 
  -24.684067    19.218927    13.753772    11.698674 
   6.9330628    19.228456    13.759239    11.700104 
  -21.391365    19.238262    13.768546    11.702615 
   50.407495    19.247213    13.778801    11.704192 
   46.024584    19.258179    13.788055    11.706548 
  -13.437049    19.270987    13.796901    11.711254 
  -18.412534    19.283258    13.803569      11.7146 
  -15.174379    19.294791    13.810308    11.717354 
   34.657212    19.305718    13.817856    11.721849 
   15.291401    19.318031    13.826205    11.725425 
  -23.496306    19.330956    13.834145     11.72686 
  -56.057106    19.342941    13.841605    11.726778 
   41.313642    19.352684    13.849701      11.7275 
  -23.678409    19.364079    13.858014    11.727451 
  -17.460734    19.374527    13.865649    11.729401 
  -18.050721    19.384277    13.875011    11.731073 
   -28.15945    19.393304     13.88688    11.731092 
   20.505794    19.401205    13.897532    11.731416 
   10.226487    19.409927    13.908787    11.732801 
   -38.76118    19.419057    13.919174    11.732701 
  -41.779324    19.426637    13.931087    11.731589 
  -23.714069    19.432546    13.943148    11.730448 
  -52.308595    19.437507     13.95592    11.728951 
  -7.6248036    19.440375    13.969208    11.728045 
   22.506185    19.442938    13.981185    11.726612 
   27.874127    19.446401    13.992893    11.723557 
  -23.693414    19.450979    14.004699    11.721481 
   20.437085     19.45461    14.016773    11.718526 
  -57.997462    19.459057      14.0275    11.716994 
   89.870831    19.461186    14.037706    11.716401 
  -18.847706    19.466908    14.045667    11.717919 
  -46.224582    19.471877    14.053626    11.721516 
  -85.193511    19.474997    14.062414    11.726929 
  -15.647715     19.47471    14.070584    11.730637 
  -50.972292    19.473796    14.078573    11.733458 
   8.0057055    19.470843    14.086163    11.737124 
  -4.7392313    19.468211    14.093977    11.741498 
  -4.6814375    19.465389    14.100749    11.744776 
   48.734889     19.46238    14.108879    11.747373 
  -14.164477     19.46132    14.118207    11.750705 
   37.110313    19.459694    14.127013    11.755349 
   24.018911    19.459552    14.135368    11.757942 
   14.934559    19.460371    14.143248    11.758171 
   -54.17574    19.461787    14.151643    11.756638 
   38.210705    19.461036    14.160691    11.753704 
   56.763213    19.461814    14.169524    11.748967 
  -3.8659734    19.464862    14.177039    11.746221 
   19.860664    19.467756    14.185485    11.740782 
   16.657041    19.471444    14.192017    11.734192 
  -49.370527    19.475798    14.196881    11.728848 
   10.016768    19.478177    14.202471    11.722653 
  -28.016769    19.480957    14.209597    11.716699 
  -45.717306    19.482617    14.217573    11.710275 
   5.8454796    19.482447    14.226274     11.70136 
  -54.021707    19.482512    14.235322    11.689979 
    15.63478    19.480416    14.242408    11.678508 
   26.819549    19.478945    14.250772    11.667833 
   23.965886    19.478546    14.257696     11.65651 
   2.3518608    19.479107    14.265928    11.644747 
  -55.879746    19.479761    14.273347    11.633923 
  -36.172646    19.478181    14.281773    11.622167 
   38.799204    19.475153    14.290341    11.612858 
  -99.703109    19.473678    14.298154    11.604858 
   21.534253    19.468214    14.306098    11.595284 
  -24.305939    19.463612     14.31497    11.589897 
   12.509129    19.458037    14.323872    11.583768 
    -8.75771    19.452963    14.332325    11.579355 
   5.4440897    19.447538    14.340031    11.572569 
  -59.418486    19.442332    14.349617     11.56472 
   9.1776116    19.434748     14.35736    11.555903 
  -14.391281    19.427532    14.365592    11.545513 
  -38.068249     19.41974    14.371938    11.536432 
  -38.557446    19.410425     14.37473    11.528261 
   8.7082585    19.399568    14.376611    11.520739 
   44.978722    19.389059    14.381506    11.515054 
   -16.54917    19.380349    14.386002    11.510572 
   11.690618    19.370978    14.391785    11.503524 
  -9.5770452    19.362074    14.398231    11.496234 
   54.131919    19.352787    14.404356    11.490154 
   36.946956    19.345665    14.408631    11.484748 
   27.758404    19.340021     14.41382    11.477012 
   39.215714    19.335488    14.418893    11.470704 
   22.760791    19.332523    14.425338    11.463861 
  -52.296166    19.330468    14.430324    11.460296 
  -8.1227756    19.326322    14.432388     11.45651 
   78.220865    19.321851    14.434343    11.453445 
  -73.107975    19.320508    14.437504    11.450857 
   4.5564019    19.316242    14.440138    11.446929 
  -7.1605445    19.312157    14.441451    11.442019 
   16.992161    19.307786    14.444594    11.436491 
   30.506067    19.304095     14.44607    11.430461 
  0.15672124    19.301624    14.447382    11.424296 
    44.00202     19.29916    14.449164    11.418684 
   40.205286    19.298455    14.449336    11.412181 
   30.543042    19.299359    14.448899    11.406602 
  -50.594603    19.301484    14.450183    11.400596 
  -30.798424    19.301586    14.450809    11.394149 
  -11.915268    19.300455      14.4516    11.386573 
  -8.2929612    19.298848    14.452246    11.379067 
  -19.094954    19.296909    14.454486    11.368828 
   37.946956    19.294207    14.459229    11.361871 
  -25.201473    19.293022    14.461809    11.355601 
   43.866309     19.29083    14.462916    11.348388 
   14.385741    19.290392    14.464543    11.339682 
  -2.1197407    19.290529    14.467053    11.330912 
  -16.390707    19.290582    14.469594    11.321978 
  -64.248888    19.289979    14.471699    11.314891 
  -5.1198889    19.286806    14.473231    11.306092 
   10.975468    19.283428    14.474965    11.298811 
  -7.7914904    19.280489    14.477279    11.291392 
   -2.630514    19.277239    14.480222    11.283923 
   24.225282    19.273883    14.483183    11.276456 
  -5.9660298    19.271496    14.484446    11.268315 
     26.3341    19.268871    14.486318    11.261574 
  0.86484053    19.267299    14.489799    11.253034 
  -40.970866    19.265762    14.492356    11.246543 
  -8.4333228    19.262586    14.494326    11.239481 
  -43.539528    19.259072    14.496684     11.23509 
   -14.28002    19.253817    14.496866    11.231754 
   41.769845    19.247991    14.495082    11.228211 
  -13.722744    19.243835    14.491497    11.225215 
  -12.254782    19.239131    14.486217    11.223705 
  0.81330652    19.233936    14.483966    11.223081 
  -18.218402    19.228774    14.482289    11.224799 
  -13.650432    19.222884    14.480733    11.226682 
   53.604788    19.216447    14.479862    11.227141 
   49.263564    19.212154    14.479215    11.227002 
   19.068436    19.209832    14.478413    11.224565 
   25.515006    19.208273    14.476131    11.224884 
   51.158091    19.207734    14.475035    11.227387 
   1.4625774    19.209242    14.472921    11.231261 
  -34.287129    19.210808    14.469933    11.232705 
   32.306353    19.211003    14.466029    11.233142 
   -54.43361    19.212489    14.460085    11.232979 
   25.060706    19.211799    14.453573    11.231988 
   -3.716391    19.212111    14.447242    11.230094 
   44.554081    19.212274    14.440672    11.228936 
  -10.809901     19.21422     14.43338    11.227945 
   21.769248    19.215733    14.427333    11.226397 
   40.861451    19.218117    14.421976    11.225157 
   39.361843    19.222135      14.4186    11.223897 
   20.351444    19.227728    14.415297    11.222607 
   9.5821199    19.234134    14.413481    11.220487 
   31.507019    19.240925    14.413022    11.219098 
   4.0105614    19.248975    14.413841     11.21851 
   -18.10616    19.257186    14.413746    11.220619 
   28.171511    19.264672    14.415506    11.223834 
  -48.814443    19.273286    14.417734    11.227423 
    55.13866    19.279947    14.419834    11.231858 
   24.545832    19.288813    14.422776     11.23514 
  -56.154223    19.298661    14.427027     11.24006 
  -58.869978    19.306263    14.430635    11.245724 
  -11.017095    19.311511    14.433128    11.252567 
  -11.434193    19.316317    14.435358     11.26196 
  -55.667023    19.320666    14.437566    11.272671 
  -20.349657    19.322789    14.440598    11.282802 
  -7.0441567    19.324098     14.44528    11.291472 
   11.607813    19.325124    14.447286    11.299152 
   5.8813735    19.326615    14.449489    11.305694 
   58.076488    19.328342    14.450722    11.313479 
   43.571011    19.332391    14.450841    11.319531 
   16.431985    19.338183    14.451653    11.327412 
   -41.52104    19.344633    14.451148    11.336363 
  0.66586976    19.349422    14.452701    11.344744 
  -47.639289    19.354237    14.453233    11.352568 
   42.234619    19.357147    14.454523    11.361093 
   17.172817    19.361746    14.457898    11.371563 
   9.1136205    19.367032     14.46135    11.380946 
   21.166793    19.372683     14.46313    11.392097 
   15.465002     19.37918    14.465597    11.403678 
    60.94083    19.386296     14.46924    11.415073 
   50.806634    19.395849    14.472812    11.428654 
  -2.7261935    19.407435    14.476323    11.441197 
  -24.128535    19.418912    14.480369    11.454421 
  0.49481477    19.429423    14.485091    11.466684 
[...]
   79.339114    27.903198     22.36598    6.1321242 
  -69.688886    27.911674    22.352893    6.1429071 
  -74.721926    27.917362    22.339595    6.1545313 
  -131.94542    27.920061    22.325737    6.1667392 
  -72.507621    27.917482    22.314969    6.1782558 
  -85.277028    27.912003    22.302664    6.1901772 
   99.467276    27.903113    22.290123    6.1996808 
   170.83616    27.898202    22.275841    6.2089818 
   94.840661    27.900124    22.264601     6.216663 
  -21.731877    27.905839     22.25432    6.2231474 
  -88.703048    27.910686    22.246267    6.2272152 
  -46.917797    27.911984    22.239875    6.2286269 
  -44.727459    27.911406    22.233103    6.2276628 
  -29.933551    27.909038    22.228361    6.2239837 
   9.7857822    27.905473    22.222552    6.2195301 
  -34.946789      27.9023    22.217637    6.2141119 
   73.698224    27.897729    22.212434    6.2056066 
   7.7634177    27.896105    22.203981    6.1969601 
   93.385402    27.894793    22.195459     6.188288 
    122.3716    27.897215      22.1851    6.1794121 
   36.965313    27.904533    22.172962    6.1705985 
  -103.29568    27.913329    22.158778    6.1654888 
   -126.5688    27.917993    22.145725     6.160805 
  -71.091953    27.917595    22.135241    6.1560173 
  -142.47255    27.914352      22.1246    6.1539945 
   41.960932    27.905411    22.111037    6.1546262 
   81.766741    27.898149    22.099148    6.1565164 
    98.01738    27.894157    22.086549    6.1568787 
   154.88881    27.894085    22.075062    6.1572091 
   3.0534519     27.90021    22.064259    6.1559465 
   -25.08779    27.906456    22.053002    6.1535059 
   52.358465    27.911699    22.041718    6.1500967 
  -139.28888    27.919036    22.031694     6.143884 
  -142.59855    27.920802    22.023506    6.1378133 
  -129.18599    27.916864    22.018251    6.1321777 
  -18.239139    27.907758    22.014183    6.1266455 
   91.497115    27.897923    22.011271     6.122575 
   85.139841    27.891747    22.007395    6.1193492 
    116.7738    27.888977    22.006485     6.116729 
   64.141617    27.890879    22.004942    6.1144031 
   99.444288    27.895345    22.003613    6.1135699 
   83.805205     27.90379    22.002632    6.1143189 
  -79.196218    27.915587    22.000941    6.1163102 
   -227.1835    27.924216     21.99756    6.1179238 
  -218.40017    27.923757    21.994255    6.1174456 
  -62.198197    27.914563    21.988068    6.1155326 
   86.388129    27.902881    21.982155    6.1115816 
   94.471061    27.894654    21.977508    6.1062509 
   47.335239    27.890206    21.971033    6.1008196 
   204.49138    27.887651    21.965023    6.0948982 
    96.62927    27.893277     21.96048    6.0887987 
   32.614111    27.902767    21.954149    6.0851082 
  -128.54221    27.913562    21.949335    6.0818361 
  -179.33921    27.919215    21.944638    6.0818959 
  -155.57311    27.917695    21.939696     6.082945 
  -67.406008    27.909951    21.934625    6.0841684 
   25.549072    27.899512    21.927077    6.0870451 
   70.653792    27.890094    21.920091    6.0893762 
   148.62587    27.883503    21.916028    6.0917581 
    185.6552    27.882856    21.913986     6.095442 
   104.94502    27.889636    21.911903    6.0992853 
  -60.189187    27.900614    21.907594    6.1048055 
  -57.097168    27.909184    21.902863     6.109539 
  -130.98079     27.91547    21.897035     6.114031 
  -110.97106    27.916517    21.890178    6.1173907 
  -110.24021    27.913125    21.880657    6.1196469 
  -28.748606    27.905323    21.872245    6.1217119 
    123.4116    27.896372     21.86435    6.1242713 
   142.27418    27.892357    21.857656    6.1274801 
     183.108    27.894033    21.851821    6.1335764 
    67.07068    27.903033    21.845841    6.1388012 
  -67.265077    27.914716    21.840156    6.1461204 
  -122.64796    27.923708    21.836128    6.1530371 
  -185.07071    27.927795    21.831229    6.1590041 
  -127.06641    27.924479    21.826947    6.1622904 
  -63.897763     27.91608    21.821123    6.1649568 
   43.840014    27.905125    21.814632    6.1678686 
   131.11282    27.895924    21.806874    6.1703694 
   187.34047    27.891967    21.799101    6.1733443 
   186.30587    27.895504    21.790413    6.1761483 
   59.625836    27.906493     21.78156    6.1814744 
  -92.913358    27.919867    21.773896    6.1883906 
  -192.28054    27.929525     21.76811    6.1958055 
  -255.61388    27.931491    21.763351    6.2049495 
   -111.0856    27.923233    21.759199    6.2149883 
    -16.7143    27.910532    21.754787    6.2231671 
   177.43474    27.897161    21.753138    6.2306385 
   190.30228    27.890889    21.752803    6.2337803 
    153.2705    27.892228    21.753564    6.2361387 
    111.7109    27.899698     21.75464    6.2380505 
   -41.82195    27.911637    21.757533    6.2382141 
  -85.703037    27.921903    21.760185     6.238667 
  -158.66846     27.92874    21.763541    6.2368098 
  -217.97334    27.929231    21.766298     6.237025 
  -113.89001    27.921003    21.769337    6.2381841 
    42.53673    27.908219    21.772032    6.2383714 
   154.37297    27.897137    21.774377     6.238389 
   121.95224     27.89223    21.776217    6.2369918 
   197.41733    27.892201    21.777791    6.2360711 
   60.731012    27.900068    21.781365    6.2346223 
  -38.481142    27.910365    21.783644    6.2341493 
  -144.26239    27.919122    21.785976    6.2358848 
  -178.46827    27.922109    21.788659    6.2367691 
  -136.13005    27.917958    21.793447    6.2382763 
   29.846696    27.908361    21.799247    6.2383971 
    109.0644    27.899958    21.804164    6.2387032 
   91.917329    27.895917    21.810872    6.2386261 
   95.131811    27.895553    21.818536    6.2385753 
   65.918531    27.898995    21.827078    6.2397297 
   28.425996    27.905073    21.837164     6.240747 
  -8.5116261    27.912288    21.846707     6.239284 
  -55.336959    27.919163    21.856327    6.2386118 
  -188.55625    27.923824    21.866031    6.2382256 
   -121.0049    27.920943    21.874741    6.2363105 
   16.712932    27.913222    21.884476    6.2361118 
   47.602308     27.90617      21.8936    6.2357851 
    59.26396    27.901021    21.900382    6.2373113 
   47.805471    27.898243    21.908135    6.2391282 
   105.13797    27.897377    21.914298    6.2406203 
   41.367717    27.900717    21.918873     6.241659 
  -1.4164574    27.905712    21.924093    6.2425607 
  -59.519062    27.910649    21.926953    6.2433926 
  -115.25702    27.913207    21.928422    6.2453445 
  -145.63375    27.911153    21.929433    6.2456313 
   -43.84766    27.903275    21.930709    6.2443927 
   89.185161    27.893642    21.929487    6.2431406 
   128.31225    27.887577    21.926772    6.2411026 
   97.184439    27.886645    21.923318    6.2388097 
    92.86543    27.889599    21.920424    6.2378378 
   74.994877    27.896269    21.918905    6.2348276 
  -44.558174    27.905938    21.917813    6.2312838 
  -88.765683    27.913825    21.914874    6.2296785 
  -93.850114    27.918161    21.911903    6.2286587 
   -137.6715    27.918743    21.907524    6.2292539 
  -7.5786071    27.913819    21.904117    6.2297811 
   10.889858    27.908591    21.901642    6.2303899 
   64.148166    27.903799    21.901391    6.2323857 
   59.463842    27.901573    21.903484    6.2354635 
   35.766526    27.901725    21.906298    6.2374494 
   37.982691    27.903308    21.911002    6.2385177 
   16.924331     27.90641    21.915032    6.2375232 
  0.91585854    27.910189    21.918301    6.2374655 
  -43.018852    27.914005    21.922557    6.2374684 
  -79.736987    27.916101    21.928184    6.2356002 
  -2.4091625    27.915006    21.933468    6.2347151 
   -62.87628    27.913815    21.940743    6.2333109 
  -27.900733     27.91011    21.949944    6.2327487 
  -9.8842298    27.905288    21.958489    6.2302491 
   53.479856    27.900071    21.966217    6.2292038 
   126.43913    27.896993    21.973938    6.2261688 
   71.027286    27.898972    21.979672    6.2222116 
   41.322242    27.903793      21.9861    6.2209552 
  -22.178996    27.910267    21.991294     6.218343 
  -60.470982    27.915853     21.99833    6.2164793 
  -177.91766    27.919021    22.004267    6.2158464 
  -50.390323    27.915072    22.007336    6.2157612 
   20.669148    27.909107    22.009541    6.2183763 
   10.972836    27.903969    22.010807    6.2201179 
   55.618251     27.89927    22.008517    6.2230648 
   191.66135    27.896796    22.006479    6.2270372 
   70.134976    27.901988    22.003633     6.230277 
  -10.283258    27.909985    21.999911    6.2318973 
  -73.644902    27.917571    21.996402    6.2338007 
  -215.75485    27.922212    21.992583    6.2370999 
  -151.66419    27.918222    21.988051    6.2423676 
  -49.390274    27.908166    21.983588    6.2481644 
   116.29796    27.896134    21.977897     6.254297 
   96.274424    27.888754    21.971058    6.2606466 
    178.2681    27.885225    21.964116    6.2668133 
   146.19618    27.888826    21.958147    6.2709717 
    68.16499    27.898276    21.950961     6.272478 
   89.483786    27.910452    21.945837    6.2735893 
  -220.19257    27.926207    21.940383    6.2742204 
  -420.05913    27.933155     21.93386    6.2739562 
   -152.7603      27.9233    21.926504     6.273553 
   14.651681    27.907335    21.918515    6.2719361 
   150.36467    27.891956    21.910822    6.2694239 
   222.66863    27.882592    21.903444    6.2668228 
   162.32535    27.882134    21.896678    6.2645169 
   118.33219     27.88817    21.889145    6.2616438 
   120.81041    27.898938    21.880085     6.258605 
  -70.568897     27.91454    21.871881    6.2575757 
  -266.87683    27.927318    21.864177    6.2551549 
  -237.02961    27.929421    21.854794    6.2559844 
   -158.2922    27.922043    21.842995    6.2578236 
  -84.620102    27.908334     21.83024    6.2590514 
   173.56764    27.891239    21.815637    6.2593873 
   336.92294    27.881087    21.800315    6.2577998 
   263.54266    27.884413    21.786785      6.25753 
    77.03893     27.89828    21.770665    6.2591444 
  -90.580374    27.915228    21.752187    6.2604771 
  -313.38277    27.928553    21.735811    6.2611064 
  -202.27557    27.929343    21.721496    6.2615046 
  -112.64374    27.922042    21.708698      6.26097 
  -114.55938    27.910235    21.695476    6.2582932 
   87.155496    27.893846    21.683475    6.2564711 
   272.30049    27.880943    21.673686     6.252491 
   359.24263    27.878932    21.663659    6.2474698 
   120.00042    27.891291     21.65335    6.2432715 
  -19.834074     27.90845    21.644778    6.2373285 
  -301.01479    27.924815     21.63769    6.2310961 
  -273.78682     27.92914    21.631321    6.2244108 
  -71.778466    27.922513     21.62752    6.2187342 
   11.943923    27.913015    21.623586    6.2110318 
  -36.051622    27.903995    21.618445    6.2014511 
   48.455892    27.893533    21.616766    6.1917872 
   203.22439    27.885009    21.613477    6.1840753 
   211.94263    27.884614    21.611118    6.1752205 
   121.47966    27.892697    21.609146    6.1652951 
    4.292044    27.905639    21.605102    6.1574231 
  -85.982703    27.918753    21.600816    6.1481062 
  -282.11979    27.928427    21.595963    6.1388058 
  -239.01041    27.926817    21.588988    6.1290263 
  -100.36123    27.915646    21.583242     6.121195 
   5.0294648    27.900461    21.576434    6.1137703 
   190.23523    27.885477    21.569622    6.1068226 
   283.02931    27.878102    21.559743    6.1014547 
   238.35791    27.882048    21.550039    6.0972186 
   98.128762    27.895529    21.540352    6.0968226 
   -129.8003    27.912935    21.530636    6.0983835 
  -201.36561    27.925149    21.519583    6.1012478 
  -195.57442    27.929308    21.507177    6.1080294 
  -230.10674    27.925645    21.495385     6.116227 
  -97.635538    27.912777    21.481156    6.1248674 
    96.82247    27.896003    21.466691    6.1350999 
   243.44375    27.883103    21.454497    6.1446878 
    272.4757     27.87994    21.443191    6.1535521 
   221.59685    27.887676     21.43075    6.1631832 
  -45.662342    27.904276    21.417518    6.1735503 
   -66.66577     27.91905    21.403058    6.1842451 
  -220.87535    27.931157    21.386384    6.1944716 
  -297.53617    27.934429    21.371393    6.2031487 
  -205.92081      27.9258    21.358445     6.210862 
  -20.065902    27.908934    21.344983    6.2170048 
   191.80975    27.891265     21.33046    6.2218563 
   224.21141    27.881268    21.315162    6.2264145 
   262.10733     27.88024    21.300715    6.2313268 
   74.729673    27.889696    21.287746    6.2352048 
  -17.340713    27.902142    21.276953    6.2371065 
  -69.365138    27.913894    21.265607    6.2396291 
  -213.96233    27.922871    21.254094    6.2411303 
  -298.84243     27.92329    21.242038    6.2429422 
  -48.376959    27.911755    21.231822    6.2450587 
     46.8775    27.898285    21.222683    6.2466669 
   154.10282     27.88669    21.215273    6.2451467 
   236.01848    27.881259    21.209346    6.2445807 
   159.42515    27.885269    21.203682      6.24455 
   4.7948519    27.895656    21.197561    6.2461975 
   12.354228    27.906234    21.192681    6.2494896 
   -48.78638    27.917307    21.188127    6.2540412 
  -260.70124    27.926429    21.186127    6.2583372 
  -243.08633    27.925122    21.188736    6.2599998 
  -58.106903    27.914092    21.193025    6.2622363 
   89.063077    27.900738     21.19781    6.2653873 
   144.04417    27.890946    21.201722    6.2690708 
   220.53287    27.886916    21.206673    6.2718112 
    73.27528    27.891707    21.209837    6.2735865 
   88.209521    27.899429    21.211384    6.2732098 
  -23.425449     27.91068    21.212329    6.2736821 
  -219.51271    27.920993    21.213838    6.2745505 
  -170.48907    27.922526    21.214001    6.2749198 
  -171.97329     27.91724    21.214068    6.2745035 
-0.00047667681    27.905075    21.212101       6.2727 
   151.07759    27.892909    21.207882    6.2671767 
   118.50484    27.886787    21.204132    6.2581659 
   216.64506    27.885405    21.200008    6.2499989 
   71.527819    27.892688    21.194308     6.242835 
  -38.685332    27.902833    21.188883    6.2373016 
  -112.33993    27.911431    21.180383    6.2312474 
  -86.684141    27.915534    21.170548    6.2260222 
  -94.014733    27.916171    21.160101    6.2205313 
  -97.767965    27.913047    21.149789    6.2156729 
  -23.491579    27.906012    21.137025    6.2115914 
   45.508316    27.898037    21.123694    6.2066517 
   90.039837    27.891883    21.109455    6.2013948 
   188.14481     27.88933    21.094998    6.1930319 
   136.82996    27.894304    21.080279    6.1819025 
  -8.2775013     27.90475    21.065468    6.1701106 
  -141.47067    27.914865    21.050547    6.1568181 
  -70.307952    27.919322    21.034599    6.1463773 
  -158.67924    27.920966    21.019623    6.1374873 
  -102.03007    27.916263    21.006472    6.1294419 
   19.072142    27.907479    20.992794    6.1237945 
   35.396967    27.899457    20.979867    6.1194477 
   183.34314    27.892852    20.968258    6.1161508 
   190.22664     27.89358    20.957925    6.1132348 
   121.91011    27.901917    20.945576    6.1084718 
  -175.38951    27.915131    20.935491    6.1033534 
  -90.113505    27.921329    20.927753    6.0979971 
  -82.252209    27.923923    20.920502    6.0931932 
  -140.30527    27.923226    20.914133    6.0882115 
   -30.98576    27.916917    20.910503    6.0827553 
  -24.716455    27.909369    20.909642    6.0775837 
   132.91953    27.900833    20.910507     6.069028 
   113.09625    27.897613    20.911811    6.0618137 
   78.661782    27.898916    20.913789    6.0534197 
   23.324247    27.903367    20.917936    6.0453861 
  -65.945372     27.90875    20.920859    6.0378576 
  -57.013522    27.911495    20.924985    6.0283068 
   13.381956     27.91196    20.928391    6.0171957 
  -67.300989    27.912961     20.93075    6.0058154 
   -46.90564    27.911269    20.931176    5.9935516 
   74.256392    27.907701    20.931447    5.9796075 
   54.145222    27.907103     20.93142    5.9648767 
   48.990188    27.908671    20.933509    5.9500083 
  -84.738069    27.912198    20.936341    5.9328246 
  -19.844339    27.912337    20.937655    5.9166054 
   12.384383    27.911681    20.939111    5.8976525 
    2.315563    27.911521    20.942126    5.8780843 
   4.4659659    27.911453       20.947    5.8599576 
   3.3603441    27.911564    20.950486    5.8439616 
  -152.26342    27.911809    20.954278    5.8293875 
  -34.460965    27.905964    20.955482    5.8164317 
   73.730034     27.89874    20.953064    5.8033829 
   139.04415    27.894466    20.949701    5.7898834 
   126.71243    27.895753    20.947093    5.7768834 
  -92.808882    27.902109    20.945748    5.7668358 
   1.9703556    27.904753    20.943906      5.75751 
  -59.299617    27.907475    20.942799    5.7466621 
   68.338291    27.907825    20.941877    5.7354259 
  -49.939712    27.910909    20.941069     5.725222 
  -124.91989    27.911995    20.940909    5.7173651 
  -91.650622    27.908085    20.941837    5.7134547 
  -55.630104    27.900508    20.940727    5.7102358 
    59.85743    27.890707    20.940403     5.707931 
   97.099926    27.883299    20.939707    5.7047519 
   191.81477    27.879776    20.939036    5.7035325 
   156.99919    27.883925     20.93851    5.7024008 
   20.520683    27.894354    20.939346    5.7024612 
  -64.490636    27.905604    20.940581    5.7032931 
  -167.33493    27.914274    20.943997    5.7046617 
  -217.42616    27.916251    20.947616      5.70803 
  -211.51527    27.909531    20.952642    5.7132037 
   91.212232     27.89435    20.956046    5.7182282 
   82.809844    27.882818    20.959489    5.7233327 
   219.50514    27.874598    20.963635    5.7298356 
   154.27063    27.875158    20.967562    5.7341239 
    92.77147    27.881889    20.972382    5.7356896 
  -8.2334839    27.892331    20.975149    5.7367321 
  -47.828158    27.902444    20.974696    5.7401044 
  -81.177055    27.910644    20.975362    5.7430176 
  -116.92799    27.915596    20.975974    5.7452114 
  -63.119505    27.915872      20.9759    5.7492263 
   11.231554    27.913622    20.976914    5.7539737 
    124.0886    27.911822    20.979853    5.7599529 
   113.54563    27.914985    20.982416    5.7651424 
ERROR on proc 0: Bond atoms 4 5 missing on proc 0 at step 23350 (../neigh_bond.cpp:65)
ERROR on proc 1: Bond atoms 5 6 missing on proc 1 at step 23350 (../neigh_bond.cpp:65)
--------------------------------------------------------------------------
MPI_ABORT was invoked on rank 0 in communicator MPI_COMM_WORLD 
with errorcode 1.

NOTE: invoking MPI_ABORT causes Open MPI to kill all MPI processes.
You may or may not see output from other processes, depending on
exactly when Open MPI kills them.
--------------------------------------------------------------------------
--------------------------------------------------------------------------
mpirun has exited due to process rank 1 with PID 8220 on
node n0097.savio2 exiting improperly. There are two reasons this could occur:

1. this process did not call "init" before exiting, but others in
the job did. This can cause a job to hang indefinitely while it waits
for all processes to call "init". By rule, if one process calls "init",
then ALL processes must call "init" prior to termination.

2. this process called "init", but exited without calling "finalize".
By rule, all processes that call "init" MUST call "finalize" prior to
exiting or it will be considered an "abnormal termination"

This may have caused other processes in the application to be
terminated by signals sent by mpirun (as reported here).
--------------------------------------------------------------------------
[n0097.savio2:08218] 1 more process has sent help message help-mpi-api.txt / mpi-abort
[n0097.savio2:08218] Set MCA parameter "orte_base_help_aggregate" to 0 to see all help / error messages
