LAMMPS (17 Nov 2016)
Reading data file ...
  orthogonal box = (0 0 0) to (60 30 30)
  2 by 1 by 2 MPI processor grid
  reading atoms ...
  8887 atoms
  scanning bonds ...
  1 = max bonds/atom
  reading bonds ...
  9 bonds
Finding 1-2 1-3 1-4 neighbors ...
 Special bond factors lj:   0          0          0         
 Special bond factors coul: 0          0          0         
  2 = max # of 1-2 neighbors
  2 = max # of 1-3 neighbors
  4 = max # of 1-4 neighbors
  6 = max # of special neighbors
10 atoms in group polymer
1 atoms in group first
Neighbor list info ...
  1 neighbor list requests
  update every 1 steps, delay 10 steps, check yes
  max neighbors/atom: 2000, page size: 100000
  master list distance cutoff = 3.3
  ghost atom cutoff = 3.3
  binsize = 1.65, bins = 37 19 19
Setting up Verlet run ...
  Unit style    : lj
  Current step  : 0
  Time step     : 0.02
Memory usage per processor = 4.13948 Mbytes
v_ftotal c_com[1] c_com[2] c_com[3] 
   133.78628         17.5           15           15 
   125.88522    17.503501    15.003346    15.011499 
   71.815418    17.512038    15.006083    15.020866 
    48.16249    17.523448    15.006185    15.027398 
   141.86537    17.536784    15.007342    15.032376 
   120.42555    17.555794     15.00867    15.038845 
   124.61493    17.579622    15.010317    15.048118 
   103.43209    17.608434    15.010692    15.057486 
   119.26838    17.641384    15.010868    15.067064 
   62.271256    17.679104    15.012704    15.074513 
   53.656047    17.719315    15.015782    15.081859 
   59.448721    17.761672    15.019316    15.089896 
   129.39237    17.806408    15.024248    15.096843 
   54.539775    17.856319    15.028253    15.104542 
   68.977582    17.908411    15.032137    15.113327 
   87.787974    17.963263    15.037289    15.119759 
   26.570413    18.021626     15.04118    15.127849 
   91.193296    18.081052    15.044515    15.134366 
   65.100525    18.144126    15.049245    15.140444 
   85.816717    18.209803    15.052269    15.146713 
   54.120844    18.278914    15.053586    15.155047 
   53.301464    18.350189    15.053625    15.162042 
   106.69856    18.423596     15.05505    15.169439 
   12.935297    18.501272    15.055103     15.17892 
   52.095375    18.579464    15.054657    15.187915 
   18.743183    18.659741    15.053283     15.19647 
   38.070744    18.740767    15.051669    15.205147 
   10.425261    18.823316    15.052764    15.212409 
   33.140275    18.906282    15.056824    15.220502 
   27.151524    18.990574    15.057751    15.228708 
   24.315886    19.075951    15.058935    15.235876 
   83.958647    19.162302    15.060231    15.242526 
   72.441397    19.252011    15.059823    15.249249 
   13.892857    19.344617    15.057426    15.258518 
   92.150025    19.437779    15.054342    15.266754 
   12.778485    19.534627    15.051796    15.275021 
   30.464257    19.631986    15.050276    15.282064 
   36.770696    19.730564    15.050877    15.289077 
   15.949188    19.830613    15.054461    15.294828 
   30.577759    19.931299    15.058307    15.301456 
  -3.5685657    20.033209    15.061942    15.306349 
    34.04574    20.134976    15.064013    15.310194 
   69.156081    20.238105    15.066466    15.314574 
   5.7073168       20.344    15.069029    15.319061 
   54.584741    20.450123    15.072923    15.323032 
  -7.4032585     20.55843    15.076964    15.326177 
   47.849332     20.66644    15.079512    15.327986 
   41.484899    20.776365    15.080982    15.331075 
  -1.5936968    20.887949    15.082475    15.332815 
  0.99727559    20.999469    15.083032    15.334625 
   1.1756605    21.111029    15.082006    15.337502 
   22.969701    21.222636    15.081088     15.34067 
   19.354511    21.335162    15.080322    15.343393 
   39.390049    21.448462    15.079281    15.346366 
   79.331266    21.563338    15.077552    15.349723 
   7.7816846    21.681387    15.074888    15.352285 
   3.4701149    21.799747     15.07207    15.355999 
   5.8503511    21.918246    15.070933    15.360862 
   48.435715    22.036979    15.068766    15.364941 
   -11.09796    22.157649     15.06478    15.368309 
   5.6210446    22.277876    15.060866    15.370753 
  -26.178999    22.398327    15.057696     15.37255 
   33.251127    22.517731    15.056678    15.370528 
  -33.203509    22.638466    15.055528     15.36865 
  -3.5890245    22.757872    15.053752    15.367732 
  -42.647671    22.877134    15.052578    15.367021 
  -45.299271    22.994691    15.052518    15.365872 
   11.369772    23.110436    15.051238    15.364041 
   17.611408    23.226635    15.051376    15.363347 
  -9.3071353    23.343539    15.049944    15.364628 
  -1.3353039    23.460071    15.045792    15.366676 
   11.347045    23.576549    15.042701    15.368832 
  -24.016102    23.693481     15.03922    15.370747 
   5.1642887    23.809452    15.035249    15.375624 
  -7.3925752     23.92563    15.030588    15.381356 
  -27.664576    24.041513    15.025678    15.384414 
   53.953947    24.156289    15.021329    15.388509 
  -45.124832    24.273222     15.01912     15.39346 
   13.158039    24.388351    15.016818    15.400373 
  -26.588753    24.504007    15.015434    15.407133 
   36.086873    24.618598    15.011963    15.413165 
   22.821688    24.734633    15.008535    15.411564 
  -29.023056    24.851581    15.004653    15.406064 
  -56.435135    24.967369    15.000675    15.402246 
  -40.883705    25.080898    14.997026    15.399513 
  -33.689575    25.192793    14.992649    15.396827 
  -25.984266    25.303339    14.989952    15.395063 
  -78.490295    25.412847    14.987665    15.393614 
  -1.3059944    25.519215    14.986824    15.393196 
   -24.96415     25.62553    14.985682    15.395257 
  -42.301203    25.730847    14.985382    15.395603 
  -49.307268    25.834472    14.985219    15.395016 
  -40.849188    25.936125    14.980544    15.391436 
  -19.095263    26.036143    14.977426    15.389038 
  -23.640041    26.135398     14.97752    15.386648 
  -17.627235    26.233707    14.979038    15.385932 
  -24.686784    26.331312    14.981561    15.384245 
   45.501239    26.427928    14.984675    15.381323 
    19.83072    26.526365    14.983725    15.378658 
   15.507777    26.625595    14.975601    15.377082 
   7.3097711    26.725445    14.962622     15.37619 
  -15.503619    26.825588    14.948224    15.378099 
   14.992741    26.925111    14.932231    15.382079 
   22.973352    27.025233    14.916134    15.386997 
  -13.056047    27.126274    14.902729    15.394197 
  -6.6154957    27.226793    14.890405    15.399924 
  -3.7868558    27.327047    14.879015    15.403862 
   13.816869     27.42715    14.865276    15.410033 
   31.633547    27.527806    14.852475    15.419916 
   -4.789111    27.629726    14.838308    15.432349 
   9.1341976    27.731456    14.825631    15.444789 
  -46.439227     27.83355    14.821648    15.454858 
  -79.060423    27.933787    14.821458    15.464199 
  -117.31365    28.030862    14.821766    15.472037 
   -158.4665    28.123244     14.82315    15.470199 
   -72.04056    28.209288    14.827046    15.459124 
  -105.93049     28.29245     14.83285    15.447586 
  -94.213851    28.371374    14.836986    15.438623 
  -85.636452     28.44653    14.841843    15.430534 
  -51.279679    28.518261    14.845298    15.415298 
  -62.554281     28.58794    14.852848    15.383876 
  -1.9938462    28.655118    14.862053    15.347805 
    48.95792    28.722215     14.87016    15.315783 
   66.814765    28.791271    14.874872    15.289272 
   -96.10032    28.862999    14.875033    15.267994 
  -14.722053    28.930884    14.875286    15.248603 
  -3.1777036    28.998179    14.880241    15.232863 
  -41.506582    29.065348    14.884331    15.222453 
  -69.103666    29.130856     14.88947     15.21496 
  -172.93628      29.1936    14.898563    15.211358 
  -164.45641    29.249426    14.924206    15.203864 
   -338.0672    29.298675    14.953596    15.193871 
  -239.55388      29.3344    14.989236      15.1779 
  -42.226173    29.360544     15.02652    15.158326 
   98.153605    29.384998    15.061457    15.137479 
   66.733355    29.413379     15.09394    15.117472 
   36.019812    29.444428    15.125141    15.098241 
  -14.924635    29.476919     15.15531    15.084031 
   81.738283    29.508813     15.18027    15.073812 
  -79.664964    29.543976     15.19633     15.06665 
  -135.10849    29.575953    15.212022     15.05564 
  -120.72332    29.602525    15.232184    15.040382 
  -17.144009    29.624268    15.257537    15.023841 
   75.605556    29.645326    15.286971    15.010901 
   61.940111    29.669408    15.318711    15.002818 
   43.129815    29.695967    15.350048    14.996888 
   6.9207254    29.724252    15.374402    14.989267 
  -61.946041    29.752813    15.391871    14.977638 
  -52.595494    29.778897    15.408381    14.967002 
  -175.83214    29.802877     15.42338     14.95232 
  -192.63789    29.819823    15.434315    14.933136 
   -256.1626    29.829064    15.448936    14.916889 
   -82.88138    29.828058    15.469553    14.908999 
   117.83332    29.823738     15.48535    14.907352 
   14.326003     29.82413    15.503862    14.906781 
  -42.655706    29.825096    15.517428     14.89944 
   -160.1798    29.824355    15.524198    14.887584 
  -58.666269    29.817207    15.531752    14.874058 
  -3.9638807    29.807713    15.542957    14.861876 
   4.0495497     29.79806    15.558351    14.849433 
   92.451573    29.788569    15.573952    14.839997 
  -47.762194    29.782776    15.584677    14.829301 
   -152.1618    29.775072     15.58856     14.80906 
  -310.75864    29.761282    15.588888    14.785465 
  -7.4316502    29.735062    15.592397    14.764793 
   72.108406    29.708544    15.599107    14.748218 
   216.88904    29.684911    15.608465    14.734444 
   253.88755    29.669953    15.615346     14.72317 
   105.67453    29.665151    15.618174    14.718021 
   96.449304    29.664576    15.623182    14.718399 
    52.26716    29.667859    15.631361    14.720645 
   500.88244    29.673232    15.638686    14.721639 
   49.576516    29.698641    15.634601    14.722135 
  -49.346037    29.726033    15.621229     14.72451 
  -45.454011    29.751451    15.606774    14.726436 
  -184.11175    29.775051    15.594657    14.725628 
  -243.28452    29.791286    15.585893    14.724203 
   53.814158     29.79779    15.578668    14.727961 
  -146.11372    29.806447    15.568471    14.741843 
   18.283359    29.809259    15.562426    14.760787 
   120.93067    29.812802    15.561336    14.776511 
   -13.35957    29.821183    15.561582    14.786611 
  -44.756154    29.829029    15.561442    14.789316 
   -2.060351    29.835085     15.56116    14.786444 
  -211.72356    29.841058    15.558859    14.782641 
  -266.96532    29.838563    15.556801     14.77468 
   165.71025    29.825389    15.554681    14.761756 
   479.26055    29.818843    15.554144    14.747163 
    118.3486    29.831468    15.555398    14.733191 
  -169.50848    29.848827    15.556173    14.724137 
   63.178039    29.859405    15.553759    14.719279 
  -65.341651    29.872511    15.551014    14.715943 
  -202.04029    29.883002    15.548628    14.713048 
  -368.30478    29.885413    15.548459    14.712079 
  -153.32402    29.873091    15.546638    14.711914 
   51.292752    29.854636    15.544006    14.712668 
   170.30924    29.838233     15.53758    14.715068 
   67.860996    29.828642    15.530612    14.719296 
   176.26296    29.821765     15.51881    14.727843 
   127.98323    29.821939    15.502575    14.736396 
   -162.0528    29.827233    15.482213    14.747786 
  -234.92366    29.826044    15.461781    14.760677 
  -207.89946    29.815459    15.445774    14.769508 
   173.53672    29.796557    15.430254    14.776419 
  -28.584903    29.784597    15.418263    14.781198 
   28.085468    29.771493    15.406782    14.786522 
   109.87646    29.759513    15.396124    14.792941 
   133.14498    29.751928    15.381975    14.803147 
   32.298893    29.749669    15.359495    14.821045 
  -53.327181    29.748702    15.335814    14.838121 
  -89.582251    29.745601    15.313298    14.854227 
   39.523508    29.738918    15.291203     14.86913 
  -46.878134    29.733815    15.270768    14.884767 
  -122.83262    29.726837    15.253913       14.898 
   25.079324    29.714946    15.240888    14.910182 
   245.17811    29.704058    15.229493    14.921797 
   165.47447    29.702977     15.22048    14.936185 
   69.239067    29.708515    15.209881    14.954006 
  -72.872269    29.716823    15.197757    14.971854 
  -71.588481    29.722216     15.18606    14.988264 
  -95.861787    29.724745    15.176341    15.003316 
   -38.57881     29.72344    15.169763    15.018139 
   113.42915    29.720592    15.166987    15.030782 
    0.472929     29.72228    15.165992    15.043708 
   35.786847    29.723988    15.166377    15.058304 
   126.53821    29.727127    15.166616    15.074689 
  -51.379979    29.735328    15.163467    15.094269 
  -35.803977    29.741474    15.158313    15.115792 
  -102.27988    29.746187    15.152145    15.138119 
  -18.474081    29.746809     15.14225    15.157184 
    5.951155    29.746692    15.129969    15.173624 
   -42.55396    29.746814    15.117376     15.18936 
   103.24753    29.745233    15.107077    15.203224 
    209.5056    29.747782    15.099963    15.218786 
   75.731999    29.758711    15.093491    15.236992 
  -189.22762    29.772669    15.086815     15.25873 
  -59.258582    29.779059    15.081432    15.283209 
  -131.21475    29.783078    15.075882    15.308387 
  -58.997978    29.781848    15.070041    15.333453 
   50.427308    29.778259     15.06399    15.356499 
   27.164249    29.776686    15.059143     15.37673 
   59.083394    29.776201    15.054848    15.394843 
  -4.0021218    29.778078    15.054284    15.409355 
  -40.060076    29.779796     15.05654    15.425954 
  -47.315141    29.779911    15.059875    15.444443 
   -40.94747    29.778133    15.066829    15.462666 
  -25.430639    29.774718    15.074081    15.478519 
  -42.372298    29.770285    15.084244    15.494624 
   64.174353    29.764157    15.095267    15.508952 
   79.313692    29.760597    15.106361    15.520002 
   72.460588    29.760209    15.118841    15.530421 
  -20.134771    29.762719    15.132355    15.539467 
   67.451161    29.764424    15.146254    15.553067 
    -26.5436    29.768827    15.159998     15.56874 
  -135.55932    29.772168     15.17145     15.58581 
  -108.65375    29.770087    15.182586    15.603736 
   157.54978     29.76366    15.191586    15.619892 
    166.0325    29.763535     15.19739    15.632019 
   75.333936    29.770051    15.202643    15.640319 
   36.150214     29.77958    15.208412    15.649641 
   33.683976    29.790556    15.213409    15.659513 
   5.4585935    29.802879    15.212969    15.670132 
  -74.109079     29.81542    15.209425    15.681138 
  -185.41458    29.824996    15.207222    15.691867 
   -141.9897    29.827157    15.208538    15.701895 
    -204.206    29.823637    15.212556    15.708624 
   27.198461     29.81195    15.219354    15.711799 
   188.23449     29.80135    15.230342    15.709984 
   88.807127     29.79828    15.240878    15.706184 
   59.857412    29.798761    15.247267    15.708238 
   61.326143    29.801638    15.251329    15.719462 
    48.71879    29.806967    15.257454    15.730797 
   9.9436245    29.814245    15.266229    15.740295 
   -155.5588    29.821921    15.276579    15.748202 
  -268.47442    29.823374    15.290906    15.751958 
  -341.86197    29.814089    15.307179    15.753941 
  -100.01386    29.791129     15.32481    15.749947 
   376.61607    29.764168    15.344421    15.741564 
   363.12485    29.752272    15.364152    15.732241 
   121.62813    29.754901    15.378936    15.726641 
   36.398993    29.762396    15.387133    15.727676 
   54.784559    29.771346    15.392648    15.732811 
   27.987759    29.782487    15.398239    15.737969 
   -132.4457    29.794748    15.407869    15.743453 
  -190.49585    29.801711    15.418553    15.747407 
  -315.83756    29.801055    15.433021    15.748135 
   -122.1988    29.787765    15.448475    15.747192 
   44.705558    29.769587     15.46266    15.746223 
   214.88915    29.753197     15.47375     15.74767 
   153.57825    29.745403    15.478876    15.748422 
   126.71937    29.743751    15.482411    15.749392 
   107.14462    29.747169    15.484937    15.749442 
    8.028714    29.754872    15.488682    15.750247 
  -73.069044    29.762897    15.493484    15.750913 
  -217.54202    29.767999    15.502508    15.751002 
  -190.20045    29.764399    15.513573    15.751948 
  -32.658558    29.753191    15.524977    15.755166 
   100.01839    29.740677    15.532902    15.759542 
   264.22068    29.732163    15.539548    15.761747 
    150.2942    29.734219     15.54575    15.762948 
   109.26843    29.742286    15.550421    15.761713 
   107.69163    29.754723    15.554291     15.75908 
   4.4347674    29.771469    15.557193    15.756869 
  -2.1084274    29.788392    15.560252    15.755094 
  -80.259024     29.80523    15.563895    15.753033 
  -150.64852    29.818859     15.56853    15.754836 
  -115.84381    29.826461    15.571588    15.761317 
  -68.342525    29.829429    15.570854    15.766969 
   53.248113    29.829664    15.571298    15.770226 
   110.92186    29.832029    15.572251    15.770392 
   36.144022     29.83883    15.574186     15.77014 
  -66.058137    29.847078     15.58139    15.768199 
  -117.87714    29.852683    15.591669    15.764616 
  -35.566441    29.853573    15.600916    15.762266 
  -9.9230083     29.85304    15.608161    15.764697 
  -39.814078     29.85211    15.615172    15.771389 
  -52.540671    29.849588    15.619756    15.779044 
  -7.0111896    29.844964    15.623094    15.784474 
   61.917442     29.84006    15.623553    15.789745 
   36.531899    29.837632    15.624059    15.791867 
  -35.195644    29.836666    15.623854    15.792278 
  -22.882412    29.834292    15.625026     15.79262 
   7.3996648    29.831002    15.626526    15.792373 
   10.697961    29.828009    15.625116    15.795441 
  -21.145736    29.825443    15.618828    15.803551 
  -56.203673    29.822032    15.609541    15.811666 
   55.354949    29.816373    15.601004    15.815159 
  -19.431918    29.812927    15.593586    15.815911 
  -27.202225    29.808705    15.586889    15.813666 
   63.783266    29.803394    15.581511    15.809552 
  -19.795374    29.800635    15.578601    15.806581 
  -41.189563    29.797084    15.576331    15.802954 
   17.040133    29.791885     15.57281    15.799861 
   40.753805    29.787368    15.566644    15.799908 
   82.263703    29.784481    15.560174    15.803001 
   40.734831    29.784884    15.553177    15.807821 
   12.940301    29.786917    15.549171    15.809225 
  -13.931606    29.789468    15.547413    15.808329 
  -14.246623    29.791461    15.545519    15.803683 
  -68.364968    29.792885    15.544863     15.79314 
  -26.148149    29.791573    15.544896    15.781181 
    42.86472    29.789216    15.549585    15.767237 
  -6.7823532    29.788574    15.554256    15.757012 
   17.565821     29.78766    15.558672     15.75156 
  -15.369562    29.787449    15.559592    15.747798 
  -51.368658    29.786623    15.559322    15.745077 
  -30.244694    29.783742    15.558354    15.741539 
  -107.65772    29.779652    15.552641    15.735863 
  -92.346367    29.771255    15.549212    15.724466 
   40.162815    29.759164    15.550492     15.70827 
   200.46903     29.74868    15.553922    15.689342 
   208.86033    29.746215    15.557737    15.670777 
   97.315074    29.752104    15.557725    15.656029 
  -55.516899    29.761886    15.557036    15.645857 
  -76.730662    29.769447    15.554134    15.641109 
  -126.26513    29.773938     15.54857    15.638748 
   -25.45432     29.77338    15.542079    15.637721 
  -72.158868    29.771803    15.537977    15.635927 
  -75.235264    29.767339     15.53381    15.630684 
   104.30553    29.759866    15.531164    15.623647 
   150.23116    29.756566     15.53147    15.615456 
   184.49871    29.759274    15.534553    15.609485 
  -16.301374    29.769363    15.539314    15.606005 
  -45.835211      29.7788    15.545209    15.603943 
  -164.17838    29.786403     15.55184    15.603244 
  -125.15691    29.787439    15.555226    15.604288 
   -31.62679    29.783469    15.553552    15.607273 
  -129.33564    29.778233    15.549461    15.611641 
   12.564977    29.767825    15.544586    15.617972 
   117.83362    29.757918    15.538994    15.622353 
    128.8844    29.752726    15.534499    15.624971 
   102.64669    29.752688     15.52964    15.627283 
  -47.698769    29.756757    15.523044     15.62852 
  -62.890764    29.758917      15.5165    15.628452 
  -142.02753    29.758562    15.507099    15.627806 
   37.824619    29.752526    15.499477    15.628197 
  -10.920564    29.748003    15.492469    15.629626 
   57.816151    29.743042    15.487972    15.632487 
  -22.362024    29.740395    15.483339    15.637755 
  -26.026707    29.736853    15.480819    15.642855 
   103.41921     29.73227    15.478685    15.649684 
   137.75402    29.731824    15.475319     15.65561 
  -14.009018    29.736888    15.470251    15.659278 
  -91.016945    29.741391    15.465664    15.662053 
  -66.531836    29.742254    15.462003    15.665946 
  -22.121907    29.740456    15.458569    15.668921 
   44.527635    29.737773    15.457698    15.670086 
   68.126197    29.736871    15.456832    15.668534 
   27.837509    29.738694    15.457861      15.6679 
   34.976809     29.74163    15.461786    15.667539 
   92.482633    29.745965    15.469239     15.66681 
    62.61234       29.754    15.478284    15.666381 
   -68.02801     29.76454    15.487345     15.66555 
  -232.94326    29.772358    15.495854    15.664212 
  -110.25824    29.770858    15.498789    15.663651 
  -71.326418    29.764948     15.49709    15.665777 
   52.922611    29.756185    15.495534    15.668157 
   16.660149    29.749539    15.495249    15.667272 
   75.970178     29.74356    15.494481    15.666417 
   196.27831    29.740619    15.495399    15.664836 
   159.71497    29.745529    15.497463    15.657825 
  -65.072966    29.756828    15.499926    15.649884 
  -237.98977    29.765524    15.499874    15.640723 
  -195.38809      29.7647     15.49863    15.631562 
  -41.933825    29.756061    15.495812    15.624421 
   133.18669    29.745745    15.494207    15.619834 
   134.51334    29.740756    15.493933     15.61736 
   47.270743    29.741147    15.496306    15.615987 
   84.877042     29.74343     15.50193    15.614723 
   106.36177    29.749107    15.509223    15.611314 
   62.071017    29.759039     15.51903    15.608609 
  -67.010209    29.771454     15.52654    15.606205 
  -166.32249    29.781188    15.530116    15.602773 
  -130.91492    29.784269    15.525844    15.599536 
   2.6996294    29.782114    15.518606    15.597812 
   99.257449    29.780067    15.510504    15.597728 
   -5.312145     29.78199    15.506187    15.597761 
  -66.858841    29.783701    15.505116     15.59961 
   27.775109    29.782737    15.508449    15.601117 
   81.840126    29.782884    15.510187    15.604589 
   34.847298    29.786305    15.512785    15.609791 
  -181.35797     29.79112    15.513352    15.613619 
  -123.54731     29.78868    15.508489    15.614451 
    39.41776    29.781299    15.499178    15.615713 
   110.28122    29.775494    15.486775    15.618492 
   30.748368    29.774101    15.472315    15.622072 
  -21.875652    29.773937    15.459219    15.625603 
   40.040285    29.772899    15.448432    15.628692 
   76.101659    29.773462    15.440402    15.630851 
   100.68499    29.777069    15.433617    15.633945 
  -4.1706781    29.784703    15.426964    15.636475 
  -20.873433    29.792171    15.418147    15.640221 
  -65.941998    29.798804    15.409138    15.642144 
   1.0052718    29.802799    15.401126    15.642916 
  -13.844064    29.806834    15.390919    15.641863 
  -31.168379    29.810316    15.379757    15.638451 
   45.968975     29.81255    15.369869     15.63293 
   114.53891    29.816624    15.359893    15.624322 
   164.60505    29.825279    15.351205    15.613887 
  -62.419624    29.840518    15.343039    15.603593 
  -115.63323    29.853261    15.335585    15.591132 
  -177.96135    29.861378    15.329565    15.578639 
   -91.92431    29.862377    15.322914    15.567551 
   29.599922    29.859698    15.315594    15.559362 
   66.771482    29.858204    15.306151    15.554833 
   72.873019    29.859381    15.293755    15.555432 
   47.830029    29.863472    15.279816    15.559535 
   110.91112    29.869477    15.267119    15.565232 
   7.3726076    29.879918    15.257833    15.570029 
   -115.5517    29.890654    15.251846    15.574611 
  -187.68245    29.896768    15.247319    15.577733 
  -156.04607    29.895375    15.246951    15.581702 
  -170.55023     29.88774    15.250371     15.58769 
  -35.173529    29.873283    15.254814    15.596309 
  -2.8997048    29.857419     15.25873    15.607539 
  -10.878352    29.841439    15.260071    15.624423 
    108.1848    29.825024     15.25822    15.641838 
   151.93846    29.812936    15.257979    15.655819 
   92.020046    29.806925    15.259138    15.666172 
   68.055666    29.804596    15.260814    15.670985 
  -52.222624    29.804989    15.264615    15.675119 
  -82.440723    29.803293    15.269125    15.678422 
  -94.086045    29.798299    15.275475    15.684638 
  -29.372328    29.789542    15.283531    15.692125 
   45.363081    29.779609    15.292633    15.699246 
    55.76471    29.771492     15.29945    15.707886 
   57.202033    29.765605    15.304663    15.717931 
   174.66123    29.762006    15.308973    15.726532 
   130.18991    29.765394    15.311286    15.732171 
   81.654788    29.773989    15.313544    15.732569 
   -7.389484     29.78585    15.316282    15.728194 
  -13.757395    29.797416    15.318889    15.722918 
  -98.123871    29.808431    15.323156    15.718017 
   -156.1667    29.815522    15.325544    15.713852 
  -44.330833    29.816365    15.323882    15.712178 
  -15.002647    29.815436    15.319659    15.710766 
   63.188839    29.813907    15.315767    15.710338 
   91.958401    29.814905    15.313077    15.707913 
  -25.896285    29.819581     15.31334    15.699595 
  -35.616314    29.823222    15.312635    15.688923 
   -51.43403    29.825437    15.313663     15.67703 
  -54.016876    29.825596    15.315648    15.664131 
  -95.649709    29.823594     15.31402    15.652929 
  -170.85663    29.817766    15.309994    15.645074 
   9.8100188    29.805103    15.303179    15.637474 
   57.470522    29.792833    15.296206    15.631952 
   85.824219    29.782862    15.290662    15.625342 
  -0.7307898    29.776324    15.287517     15.61638 
  -20.019761    29.769756    15.285459    15.605926 
   44.316012    29.762388    15.284245    15.592012 
  -13.632201    29.756792    15.284548    15.579652 
  -99.228735    29.750651    15.284345    15.569842 
  -111.09473    29.740541    15.282117    15.563659 
   65.118402    29.725988    15.277921    15.560566 
   117.50939    29.714039    15.271607    15.557461 
    102.9592     29.70679    15.265163    15.555153 
   153.61737    29.703659    15.262311    15.551744 
  -9.8500983    29.706674     15.26229    15.543739 
   53.995918    29.709294     15.26618    15.533667 
   50.027309    29.714074    15.272724    15.523775 
   68.297125    29.720856    15.279081    15.516335 
  -7.3861217    29.730369     15.28495    15.512611 
  -110.25615    29.739586    15.289049    15.512549 
  -59.139049    29.744394    15.292188     15.51662 
   59.681983    29.746836    15.291287     15.52576 
   75.325462    29.751665    15.290146    15.534201 
   -53.47317    29.759507    15.289692    15.538312 
  -58.500465     29.76521    15.293096    15.539331 
  -23.374161    29.768574    15.299278    15.538806 
  -60.145459    29.771002    15.305814    15.536682 
   44.413948    29.771024    15.312179    15.535483 
-0.096735797    29.772823    15.318369    15.537075 
  -132.06093    29.774619    15.323637       15.539 
  -31.373116    29.771131    15.326304    15.542425 
    13.21681    29.766389    15.325748    15.546064 
   27.361553    29.762175    15.324983    15.552105 
   2.2899215    29.759056    15.324683    15.557898 
  -115.76731    29.756029    15.322816    15.563197 
   31.650447    29.748371    15.318671    15.569795 
   25.475017    29.741979    15.314399     15.57554 
   42.020516    29.736605    15.308798     15.58162 
   82.710967    29.732913    15.304758    15.589309 
   29.589948    29.732529    15.300849    15.595152 
   29.316739    29.733329     15.29637    15.599084 
   -70.34023    29.735301    15.291144    15.601472 
   51.589995     29.73446    15.283975    15.602475 
  -37.881946    29.735682    15.277006    15.602573 
  -38.425005     29.73539    15.265843     15.60196 
   70.299158     29.73356    15.252429    15.606378 
   -51.10747    29.734542    15.239639    15.610064 
   57.969971    29.733479    15.229119    15.614391 
   78.354272    29.734736    15.220679    15.615314 
   30.952945    29.739127     15.21349    15.615692 
   3.8229973    29.744756    15.208394    15.614856 
  -103.92938    29.750537    15.204505    15.614585 
  -27.376566    29.752162    15.198761     15.61469 
  -28.028684    29.752691    15.193122    15.616708 
  -11.033764      29.7521    15.188819    15.619728 
  0.23299226    29.751067    15.184488    15.623478 
   1.9338461    29.750043    15.180383    15.626107 
   40.178932    29.749097    15.179514    15.625776 
  -3.4657627    29.749758    15.179525    15.624442 
  -32.766718     29.75028      15.1807    15.622114 
   23.719185    29.749491    15.182785    15.620732 
   6.6216709    29.749652      15.1855     15.61752 
   34.660868    29.750077    15.188537    15.615309 
  -32.146986    29.751889    15.189288    15.613896 
  -20.038431    29.752414    15.189988    15.612546 
   28.808561    29.752139    15.192585    15.610496 
    -53.0939    29.753015    15.196501    15.610799 
  -7.0570655    29.751768    15.202265    15.611557 
   -5.253232    29.750238    15.211677    15.610591 
  -25.920788    29.748499    15.222162     15.60879 
  -7.8086104    29.745722    15.235106    15.605688 
   109.91397    29.742634    15.247233    15.602231 
   14.600345    29.743941     15.25937    15.596653 
   18.411093    29.745833    15.270923    15.589631 
  -6.2498332    29.748461    15.278967    15.583783 
  -17.198185     29.75084    15.282755    15.581954 
  -20.962997     29.75253    15.284174     15.58414 
  -24.577125    29.753382    15.283759    15.589063 
   3.7858019     29.75325    15.281829    15.592767 
  -39.284381    29.753271    15.280575    15.596516 
   70.549406    29.751719    15.280311    15.599203 
   120.22762     29.75299    15.282568    15.600572 
  -45.290056     29.75907    15.288044    15.600982 
  -16.432531    29.763338    15.294662    15.603686 
  -132.71529    29.766949    15.299648    15.610913 
    2.904119    29.765251    15.301277     15.62201 
   25.197823     29.76367    15.303285    15.634012 
   43.633571    29.763096    15.301865    15.647262 
  -13.422853    29.764268     15.29697    15.660438 
   49.959666    29.764903    15.291437    15.672768 
   6.6824689    29.767536    15.286453    15.683444 
   5.5448821    29.770437    15.283961    15.690143 
  -101.49613    29.773559    15.282712    15.693181 
  -29.739319    29.772621    15.282879    15.689478 
   -10.67665    29.770494    15.283552    15.680892 
   77.328779     29.76794    15.283954    15.670169 
    11.96774    29.768479    15.282014    15.661386 
  -5.9313775    29.769497    15.276582    15.653471 
     10.3779    29.770277    15.269897    15.645127 
  -57.809751    29.771473    15.263241    15.635794 
  -52.797876    29.770356    15.258052    15.628084 
  -102.34188    29.767127    15.252052    15.620778 
  -49.667903    29.759805    15.245502    15.613978 
   74.015554    29.750495    15.240072    15.606977 
   68.879025    29.744147    15.234749    15.598517 
   58.631247    29.740554    15.226829    15.589028 
   184.57608    29.739305    15.217954    15.582501 
    119.7539     29.74544    15.207552    15.580985 
  -63.566765    29.756365    15.197832    15.581734 
  -194.48692    29.764748    15.187986    15.582848 
  -54.331731    29.765351    15.179024    15.585028 
  -95.112845     29.76378    15.170833     15.58778 
  -6.7352399    29.758406     15.16566    15.589388 
   72.898642    29.752761    15.161108    15.589586 
   44.155646    29.750033    15.156497    15.591225 
   110.84803    29.749071    15.151331    15.593815 
   103.07769    29.752543     15.14787    15.597484 
 -0.62723521    29.760138    15.146275    15.602522 
  -165.91945    29.767708    15.145863    15.604954 
  -244.28008    29.768641    15.147061    15.608736 
  -67.809259    29.759803    15.150358    15.610751 
   50.186439    29.748252    15.154031    15.612624 
   137.22894    29.738709    15.156484    15.616089 
    94.40155    29.734655    15.160393    15.618904 
   84.484705    29.734377    15.164504    15.623555 
   163.37844    29.737479    15.169594    15.625448 
   62.781499    29.747116    15.175211    15.626933 
  -63.766891    29.759264    15.179657    15.628339 
  -268.51306    29.768861    15.185041    15.629317 
  -172.57132    29.767718    15.191829     15.62994 
  -50.509343    29.759672      15.2003    15.628177 
   38.589897    29.749605    15.208847    15.628677 
   145.03303    29.741082    15.214492    15.627813 
   148.91303    29.738361    15.218912    15.625463 
   146.56875    29.741596    15.224946     15.62105 
   104.34129    29.750693    15.229353    15.615332 
   -18.30309    29.763965    15.235022    15.605296 
  -162.17762    29.776504     15.24017    15.590298 
  -342.50467    29.782556    15.245673    15.574944 
  -186.63892    29.774908    15.248169    15.560218 
  -66.491066    29.759795    15.247937    15.547421 
   86.765714    29.742021    15.246092    15.537084 
   163.59213    29.727719    15.241147    15.527626 
    324.1354     29.71996    15.235173     15.52023 
   176.08265    29.725166    15.229984    15.514564 
   92.534194    29.737416    15.226827    15.508662 
  -103.76005    29.753367    15.225959    15.499655 
  -290.71575    29.765168    15.228984    15.489668 
  -210.68305     29.76534    15.233654     15.48245 
  -127.94449    29.757085    15.238854    15.473591 
   62.420147    29.743712    15.242344    15.471049 
   123.21804    29.732836    15.244936    15.470832 
   266.80069    29.726888    15.247817    15.473331 
   229.94862    29.731613    15.253684    15.477446 
   54.468953    29.745535    15.260121    15.480897 
  -102.47411    29.761637    15.268348    15.485538 
  -108.15096    29.773639    15.276455    15.491245 
  -192.81436    29.781315    15.285982    15.494489 
  -166.63977    29.781279    15.297416    15.498598 
  -13.173025    29.774577    15.308152    15.500773 
  -13.452014    29.767348    15.317167      15.5046 
   172.56162    29.759582    15.322746    15.512699 
   189.33126    29.758717     15.32589    15.523004 
   65.187639    29.765426    15.328434    15.534925 
  -55.950359    29.774742     15.33211    15.544538 
  -126.82784    29.781821    15.336416    15.552921 
  -152.89234    29.783826    15.340791    15.560191 
  -116.37563    29.779715    15.347653     15.56681 
  -79.984892     29.77095    15.353305    15.571666 
  -41.506595    29.758985    15.358694    15.576512 
   106.18627     29.74536    15.360737    15.583373 
   161.73173    29.735982    15.361267    15.592357 
   170.15051    29.733074    15.359181    15.602005 
   92.305689    29.736971    15.358241    15.610695 
  -3.9961454    29.744561    15.360124    15.617767 
  -59.679236    29.751991    15.362603    15.623142 
  -70.916276    29.757034       15.367    15.625815 
  -76.979474     29.75924    15.372414    15.626944 
  -19.414741    29.758367    15.377459    15.628729 
  -25.340883    29.756717    15.380779    15.633742 
    58.29136    29.754054    15.382777    15.638509 
   57.250569    29.753722    15.381733    15.643603 
   83.114176    29.755681    15.382644    15.646613 
  -6.7019468    29.760964    15.384342    15.648445 
   23.404795    29.765979    15.387498    15.649931 
  -17.821761     29.77193    15.392652    15.649747 
  -45.070935    29.777168    15.396074     15.65075 
  -211.42382    29.780603    15.400516    15.651976 
  -109.95381    29.775582    15.406256    15.655032 
  -7.7250873    29.766162    15.411001    15.661608 
   53.859912    29.756433    15.415792    15.670175 
   76.750697    29.748859    15.418647    15.681403 
   107.45278    29.744355    15.420701    15.691577 
   36.236247    29.744149    15.424398    15.700546 
  -2.1244945    29.745392     15.42786    15.708798 
   28.744689     29.74655    15.432081    15.714937 
  -38.383926    29.748858    15.436244    15.720862 
  -121.15219    29.749631    15.438254    15.727134 
   71.918931    29.745558    15.437552    15.734133 
    2.441196    29.744361    15.436155    15.739839 
   74.746887    29.743262    15.432694    15.742707 
   53.829835    29.745153    15.427159    15.746274 
  -35.484714    29.749197     15.42247    15.749144 
  -28.404488    29.751822    15.415518    15.751994 
  -28.844604     29.75331    15.407212    15.751266 
   12.056395    29.753645    15.397326     15.74804 
  -28.307219    29.754462    15.387778    15.744211 
  -52.051469    29.754147    15.380685    15.739493 
   55.742579    29.751749    15.373406     15.73367 
   43.172517    29.751582    15.365989    15.726814 
  -7.2294031    29.753141    15.357256    15.718918 
  -9.7172235    29.754411    15.346151    15.712681 
   34.164529    29.755292    15.335385    15.711505 
  -2.9714401     29.75754    15.324348     15.71219 
   -34.21892     29.75967    15.315158    15.713777 
  -39.129434     29.76043    15.306532    15.715541 
  -47.324997    29.759625    15.301906    15.716204 
  -66.297116    29.756927    15.298446    15.716227 
  -19.495861    29.751578    15.296288    15.715904 
   59.277036    29.745448    15.295824    15.716602 
   86.321262     29.74169    15.295258    15.717959 
   52.393675    29.741384    15.291462    15.723328 
  -3.7473105    29.743174    15.284778    15.729786 
    37.50333    29.744814    15.276488    15.737771 
   59.043861    29.747955    15.270393    15.744131 
  -56.784132    29.753457     15.26596    15.747276 
   -60.41806    29.756688    15.262524    15.749579 
  -6.1691601    29.757502    15.260826    15.749337 
  -38.635556    29.758069    15.259196    15.745939 
   49.522576    29.757091    15.257364    15.743619 
  -2.5961786    29.758094    15.255102    15.742951 
  -11.265955    29.758993     15.25319    15.739961 
   44.961815    29.759441    15.248416    15.735996 
  -31.036488    29.761688    15.242856    15.731023 
   33.235532    29.762693     15.23724    15.725283 
  -69.738288    29.765028    15.235011    15.717078 
    -84.4103    29.764573    15.234773    15.708475 
  -99.461389    29.760742    15.234852     15.70289 
  -18.324568    29.752932     15.23523    15.698361 
  -9.8255873    29.744389    15.239533    15.696786 
   79.156412    29.735454    15.245436    15.697295 
   61.196353    29.729684    15.248234    15.696262 
   92.555735    29.726363    15.251727    15.695254 
   94.790773    29.726743    15.256621    15.692949 
  -1.0199354    29.730915    15.263058    15.688453 
  -73.637257    29.735047    15.273314    15.683186 
  -94.002419    29.736233    15.283861    15.677985 
  -70.043669    29.733659    15.291538    15.674525 
   2.1224167    29.728283    15.294252    15.673533 
    80.35775    29.722992    15.292952    15.676197 
   141.61679    29.720915    15.288629    15.679401 
   120.33627    29.724503    15.284211    15.685613 
   46.729138    29.732905    15.280604    15.690704 
    7.068036    29.743176    15.279324     15.69568 
  -103.67312    29.753729    15.280232     15.70053 
  -163.33318    29.760135    15.279346     15.70344 
  -55.584473    29.760008     15.27639    15.708263 
  -59.201259    29.757658    15.271579    15.712503 
   51.540969     29.75294    15.265381    15.716372 
   171.81313    29.750283    15.256402    15.720964 
   166.57131    29.754499    15.246026    15.725317 
   24.145526    29.765378    15.235812    15.728081 
  -76.868538    29.777222    15.224279    15.730045 
  -160.33494    29.785992    15.215296    15.728919 
  -137.43025    29.788348    15.206303    15.728934 
  -85.745207    29.785208    15.198583     15.72819 
   16.143561    29.778637    15.190305    15.726492 
   92.874292    29.772712    15.182606    15.723766 
   109.47104    29.770502    15.175473    15.721206 
   144.24439    29.772671    15.166465    15.718963 
   11.148278     29.78061    15.157941    15.716923 
  -145.03899    29.788994    15.148037    15.715007 
  -174.65657    29.791577    15.139376    15.713184 
  -36.207162    29.787174    15.128586    15.712297 
  -34.157238    29.781323    15.119446    15.712203 
   93.985843    29.774105    15.110857    15.711611 
     59.3426    29.770647    15.103325     15.71167 
   80.209507    29.769562    15.094103    15.712344 
    63.79486    29.771686    15.087195    15.714282 
   41.612101    29.776361    15.081893    15.717399 
  -34.885725    29.782701    15.075237    15.717434 
  -17.063803    29.787646    15.070445    15.716224 
   -68.38345    29.791908    15.065693    15.712162 
  -94.605005    29.793435    15.062446    15.708603 
  -9.7973465    29.791177     15.06003    15.706772 
   46.411536    29.788528    15.057835    15.707132 
   47.230427    29.787735    15.054223    15.709983 
   24.374964    29.788831    15.049473    15.713521 
   91.252211    29.790902    15.049526    15.715983 
   50.523452    29.796624    15.052245     15.71947 
 -0.48206648    29.804366    15.054875    15.723764 
  -39.053495    29.812089    15.060638    15.728851 
  -74.995597     29.81825    15.065637    15.734755 
  -78.237063    29.821411     15.07259    15.740972 
  -195.06415    29.821443    15.081889    15.748308 
  -81.512918    29.813672    15.088438    15.754197 
  -1.2698408     29.80264    15.091722    15.761538 
   69.581642    29.791558    15.094132    15.768737 
   119.68877    29.783259    15.099866    15.774712 
   142.24767    29.779747    15.105043    15.779723 
   40.828425    29.781926    15.109738     15.78529 
  -61.308134    29.785737    15.112978    15.793385 
  -101.75874    29.787097    15.115784    15.800733 
  -74.450961    29.784386    15.118457    15.806512 
  -92.524827    29.778696    15.119037    15.810757 
  -65.589336    29.769306    15.119695    15.814944 
   64.974051    29.757293     15.11975    15.819236 
    197.9871    29.747878    15.119536    15.819726 
   191.99123    29.746383    15.120193    15.821386 
   34.306306    29.752567     15.12325    15.821669 
  -24.956835    29.760124    15.126002    15.821464 
  -50.069092    29.766682    15.128935    15.819878 
  -132.21986    29.771238     15.13013    15.817492 
  -122.13421    29.770504    15.130612    15.814974 
   -91.27607    29.764886    15.130174    15.815421 
    14.10477    29.755616    15.127588     15.81666 
   128.68063    29.746911    15.125403    15.815582 
    193.0773    29.743353    15.126344    15.814299 
    183.6344    29.747518    15.129129    15.812793 
   35.352501    29.759028    15.130135    15.808518 
  -62.100832    29.771952    15.131448    15.804139 
  -124.44887    29.782393    15.132283    15.798216 
  -157.50913    29.787855     15.13275     15.79014 
  -97.058709    29.787017    15.134308    15.781141 
   4.3596976    29.782297    15.136052    15.771501 
     46.2112    29.777751    15.134777     15.76713 
   65.090349    29.775053    15.130843    15.766475 
   91.785665    29.774959    15.124843    15.769624 
  -17.235736    29.778537    15.118761    15.774426 
  -36.627444    29.781425    15.113018    15.780273 
  -84.420116    29.782848    15.111014    15.785186 
  -104.53874    29.780894    15.115501    15.787652 
  -76.197975    29.774759    15.122802    15.788431 
   13.775235    29.765576    15.130794    15.788072 
   60.008078    29.756943    15.138109    15.788824 
   13.644795    29.750712    15.143986    15.791966 
   -6.385931    29.745025    15.145392     15.79827 
   65.186398    29.739084    15.140813    15.807156 
   99.811123     29.73575    15.133576    15.817227 
   26.107307    29.736408    15.126289    15.825087 
  -31.932963    29.738111    15.120686    15.832116 
    90.79277    29.738536    15.118719    15.835926 
   29.998569    29.742593    15.120171    15.837746 
   20.860513     29.74785    15.123947    15.837553 
  -38.446883    29.753941    15.132179      15.8348 
  -33.261083    29.758495    15.142428    15.829643 
  -41.040687    29.761718    15.152781     15.82171 
   94.785404    29.763299    15.159385    15.811289 
    78.09611    29.768672     15.15984    15.803438 
   32.063965    29.777169    15.157093    15.792948 
  -58.657813    29.786948    15.156508    15.780139 
   16.263683    29.794381    15.156901    15.765397 
   38.258734    29.802465    15.160696    15.751394 
   35.226176    29.812079    15.165039    15.738828 
  -40.562511    29.823101    15.168523    15.726946 
  -196.25598    29.832502    15.170941    15.719476 
  -91.103022    29.834052    15.175237    15.715144 
  -23.435783    29.831958     15.18075     15.70846 
  0.70805161    29.828927    15.189208    15.701612 
   12.964473    29.825924    15.199127     15.69166 
   46.570685    29.823439    15.210285     15.68001 
   64.768415    29.822817    15.223605     15.66914 
   84.383206    29.824786    15.235368    15.659008 
  -3.9276176    29.830131    15.244583    15.652933 
  -70.833201    29.835318    15.250199    15.651543 
   -108.6468    29.837672     15.25233    15.651521 
  -44.157902     29.83568    15.251421    15.650032 
   14.935805    29.831922     15.25176    15.643984 
   55.289273    29.828761    15.253291    15.635554 
    26.27654    29.827812    15.257444    15.622398 
  -14.666297    29.827914    15.261625    15.610531 
  -42.021736    29.827429    15.264692    15.597694 
  -12.279503    29.825263    15.265424    15.585535 
   26.794309    29.822606    15.263491    15.574908 
   37.077887    29.821021    15.261569    15.564758 
  -37.744027    29.820919    15.258734    15.553094 
  -85.642974    29.819308    15.257429    15.539642 
  -54.392593     29.81427    15.257288    15.525778 
   57.748652    29.807057    15.259995    15.511371 
   60.255218    29.802154    15.264036    15.498431 
   65.723039    29.799661    15.269041     15.48951 
   89.235143    29.799797    15.274071    15.483375 
  -4.7785464    29.803502    15.279867     15.48109 
   10.314809    29.807016     15.28519    15.480666 
   34.284622    29.810943    15.290598    15.480619 
  -167.72599    29.816241    15.296547    15.481937 
  -145.73629     29.81483    15.304597    15.484837 
  -21.013895     29.80759    15.313805     15.48866 
   34.689211    29.799509    15.325544    15.494174 
   172.28151    29.792816    15.338874    15.500817 
   37.507833    29.793014    15.351046     15.51048 
   87.462492    29.794712    15.360369    15.521489 
   8.9177767    29.799909    15.370198    15.533533 
  -102.49384    29.805462    15.379048    15.541871 
  -156.71986    29.806916    15.386547     15.54897 
  -89.736757    29.802101    15.393728      15.5546 
   30.197467    29.793696    15.401342    15.557741 
   101.71661      29.7865    15.407476    15.559504 
   111.53833    29.783372    15.410855    15.563553 
   41.469054    29.784705    15.407943    15.570085 
   92.899895    29.787697    15.402332    15.576998 
  -8.1170161    29.794406    15.395091    15.583687 
  -10.334101    29.800789    15.386982    15.590444 
  -37.118009     29.80676    15.377335    15.595111 
  -158.20935    29.811245    15.365751     15.59644 
  -85.347578    29.809402    15.354312    15.595894 
  -104.55893    29.804146     15.34505    15.592324 
   56.893416    29.794706    15.338021    15.585558 
   29.816469    29.787543    15.330744     15.57918 
   -39.31539    29.781572    15.320231    15.573505 
   107.49036    29.774029    15.307924     15.56801 
    118.4634    29.770785    15.294833    15.563652 
   17.843004     29.77228    15.281821    15.560529 
  -134.66514    29.774489    15.269992    15.559665 
  -151.89735    29.771311    15.261769    15.561021 
  -7.9693192    29.762057    15.256645    15.562107 
   80.575073    29.752484    15.252144    15.566292 
   123.53295    29.746134    15.246872    15.571391 
   82.273281    29.744726    15.237975    15.576237 
   51.585959    29.746608     15.22883    15.581998 
   57.325711    29.750554    15.219524    15.587259 
   59.912483    29.756793    15.211591    15.593611 
   145.67902    29.765429    15.202877    15.599439 
   -63.80754    29.779892    15.197409    15.601968 
  -268.65364    29.791802     15.19179    15.603509 
  -201.61598    29.792966    15.186233    15.606716 
   15.510561    29.786066     15.17854     15.61472 
   104.03556    29.779786    15.169325    15.625664 
    42.19287    29.777667    15.162838    15.635893 
   86.236604    29.777236    15.158335     15.64439 
   24.913454    29.780255    15.155748    15.652038 
   58.338543     29.78427    15.153815    15.654151 
    65.14377    29.790619    15.153475    15.655247 
    76.78689    29.799573     15.15734    15.652794 
  -130.36567    29.811599    15.162213     15.64598 
  -299.42075     29.81841    15.166305    15.643062 
  -73.145439    29.813245    15.165532    15.643574 
   46.499191    29.805153    15.161802    15.645891 
   51.177576    29.798922    15.159359    15.648356 
  -40.913096    29.794738    15.157357    15.650843 
  -6.1566239    29.788917    15.153771    15.652893 
   68.425849     29.78285    15.150925     15.65398 
   50.041137     29.77952    15.151851    15.649827 
   120.76959    29.778191    15.155005    15.642107 
  -13.887506    29.781694     15.15844    15.635433 
  -81.469343     29.78464    15.160524    15.628142 
    -63.5872    29.784329    15.161815    15.623422 
  -113.26805    29.781473    15.162878    15.619734 
  -71.729163    29.774087     15.16132    15.618656 
  -66.650281    29.763832    15.158511    15.619518 
  -11.802299     29.75091    15.154985    15.621659 
   131.44444    29.737517    15.150893    15.623919 
   217.06251    29.729381    15.145074    15.623869 
   226.80814    29.729928    15.138761     15.62048 
   89.204949    29.739548    15.133944    15.614398 
  -82.798162    29.752735    15.131434    15.607254 
  -20.120764    29.762611    15.127625    15.600776 
  -48.567244    29.771681    15.121853    15.597523 
  -66.173597    29.778809    15.113181    15.597309 
     -177.34     29.78329    15.105224    15.601803 
   -123.8857    29.780678     15.09816    15.609262 
   34.096335     29.77311     15.09288     15.61726 
   168.61291    29.766905    15.087485    15.625291 
   206.86505    29.767446    15.083042    15.633208 
   80.827032    29.776261    15.081135    15.642825 
  -72.680505    29.788309    15.082652    15.653202 
  -201.07244     29.79745    15.086192    15.663676 
  -184.56918    29.798548    15.091131    15.674789 
  -37.357106    29.792263    15.097361     15.68987 
  -42.206094    29.784484    15.100522    15.705052 
   46.796326    29.775016    15.103173    15.722858 
   117.60946    29.767421    15.104788    15.744027 
   105.48133     29.76453    15.103897    15.766791 
   149.77331    29.765858    15.105787     15.78734 
   112.09012    29.773177    15.110139    15.803659 
  -70.631956     29.78498    15.117023    15.816761 
  -163.22968    29.793957    15.123543    15.826567 
  -214.91344    29.796405    15.128349    15.833149 
  -151.53188    29.790257    15.132957    15.837844 
  -27.886394    29.778047    15.135185    15.842557 
   72.536325    29.764722    15.137246    15.847429 
   100.21169    29.754299    15.137784    15.853686 
   113.40418    29.747883    15.137119    15.860852 
   78.885974    29.746004      15.1373    15.866987 
   12.955321    29.747281     15.13713    15.871458 
  -28.283707    29.749075    15.138366    15.874895 
  -247.74464    29.749739    15.138711    15.876905 
  -119.53104    29.740492    15.141214    15.880087 
  -61.883604    29.726465    15.140539    15.880716 
   192.20699    29.709962    15.138302    15.882606 
    131.4822    29.701147    15.133214    15.887053 
   126.02969    29.697591    15.127648    15.895672 
   23.640133    29.699077    15.120245    15.904917 
   87.432809    29.701508    15.115373     15.91357 
  -12.368636    29.707437    15.113424    15.917384 
  -60.962786    29.712871     15.11532    15.919335 
  -116.60213    29.715866    15.118258    15.919984 
  -101.34996    29.714198    15.124241    15.921829 
  -57.489342    29.708475    15.128192    15.925609 
    19.36797    29.700452    15.130601    15.930875 
   92.117394    29.693205    15.132389    15.938207 
   140.91153    29.689642    15.133428    15.948443 
   97.321175    29.691716     15.13494    15.958282 
   42.354047    29.697682    15.141352    15.965752 
  -49.584911    29.705343      15.1496    15.969312 
  -81.121511     29.71102    15.158505    15.968662 
  -38.984216    29.713452    15.168255    15.965582 
   -103.0365    29.714325    15.180028    15.961895 
  -60.743696    29.711077    15.190255    15.958846 
   135.24251    29.705398    15.200687    15.951608 
   151.14063     29.70513    15.209784     15.94297 
   117.61204    29.710907    15.217848    15.934041 
  -7.1215569    29.721389    15.226122    15.923445 
   -40.30276    29.731585    15.234574    15.912163 
   -62.54189     29.74017    15.243935    15.900293 
  -50.698664    29.746253    15.254116     15.88852 
  -49.872171    29.750308     15.26343    15.877702 
  -79.357431    29.752368    15.271322    15.867054 
  -107.19379    29.751254    15.277101    15.856564 
  -11.515031    29.745852    15.279005    15.846628 
   80.064551    29.739989    15.279095    15.837089 
   73.925961    29.737329    15.277865    15.825803 
   119.56678    29.737626    15.277278    15.815816 
   19.125526    29.742706    15.277484    15.802891 
   22.593495    29.748551    15.277712    15.787719 
  -58.059777    29.755299    15.277779    15.773096 
   -58.16162    29.759725    15.276991    15.759301 
  -74.249158    29.761825    15.279545    15.745416 
  -49.977206    29.760954    15.280127    15.732308 
  -107.85169    29.758085    15.279649    15.719389 
   88.158063    29.750902    15.277345    15.710684 
   43.311774    29.747244    15.273208    15.705051 
    50.26133     29.74532    15.269342    15.702702 
   12.096575    29.745405    15.265868    15.700106 
   -32.41175    29.745975    15.263787    15.697481 
  -28.177504    29.745248    15.261906     15.69581 
  -45.793336    29.743394    15.261398     15.69375 
   29.750248    29.739709    15.262842    15.690048 
   20.357205    29.737213    15.263321    15.689064 
   25.610159    29.735532    15.258947    15.688617 
    44.02931    29.734875    15.250258    15.689686 
  -14.839473    29.735979    15.241867    15.688694 
  -14.489173    29.736489    15.235482    15.683739 
  -66.018643     29.73642    15.231048    15.676086 
  -79.244453    29.733711    15.226565    15.668033 
   10.407102    29.727831    15.223327    15.659302 
   44.600549    29.722368    15.219213    15.650265 
   24.559241    29.718689    15.211596    15.641198 
   55.290919    29.715992    15.202816    15.633416 
   22.603757    29.715507    15.193353    15.627778 
   6.7969425    29.715926    15.184873    15.619337 
  -49.837856    29.716617    15.177252    15.609705 
  -18.953716    29.715314    15.167663    15.597955 
   85.318562    29.713253     15.15893     15.58075 
   92.523412    29.714605    15.150805    15.563236 
  -44.249964    29.719658    15.142732    15.545263 
  -91.805756    29.722941    15.133181    15.529435 
  -0.6092271    29.722552    15.123307    15.519593 
   39.714147    29.722138    15.112234    15.513658 
   86.440705    29.723313    15.100874    15.510188 
   49.441683    29.727945     15.09093    15.511703 
  -49.238323    29.734555    15.083757    15.513774 
  -139.59412    29.739196    15.080014    15.515416 
  -39.859263    29.738253    15.078841    15.513477 
   19.685518    29.735715    15.079221    15.510301 
  -23.539569    29.733965    15.078331    15.506816 
   13.219468    29.731274    15.076134    15.502828 
   11.446091    29.729111    15.073412    15.499132 
   82.160609    29.727406    15.068534    15.498785 
   75.351256    29.728987    15.062169    15.503726 
    8.413709    29.733582    15.057518    15.512324 
  -76.691839    29.738514    15.056008    15.521269 
   -106.0548    29.740379    15.056778    15.529641 
  -129.83864    29.738001    15.061725     15.53739 
  -30.711872    29.730429    15.067549    15.544214 
   53.471269    29.721629    15.075489    15.551126 
   44.762323    29.714968    15.086212    15.558333 
      79.981    29.710098    15.097219    15.565624 
   121.66827    29.708426    15.104705    15.577012 
   99.190414    29.711622     15.11169    15.589361 
   -34.39326    29.718785    15.116679    15.604836 
  -94.478438    29.724572    15.120747    15.617957 
  -98.351368     29.72658    15.126255    15.627827 
   -154.6613    29.724654    15.133231     15.63525 
  -69.204449    29.716542    15.140707    15.640756 
  -15.412702    29.705661    15.147766    15.644126 
   72.904833    29.694164    15.157456    15.646321 
     152.241    29.685583    15.167368    15.647654 
   142.78913    29.683092    15.176555    15.648983 
   63.489833    29.686312    15.181021       15.647 
  -59.716304    29.692072    15.181833    15.646959 
  -124.00703    29.695444    15.177516    15.645961 
  -142.40521    29.693855    15.170542    15.644078 
  -97.199111    29.686569    15.163609    15.641391 
  -38.661577    29.675396    15.156531    15.638433 
   75.992315    29.662677     15.15086    15.633152 
   341.02473    29.652997    15.146992    15.626922 
   165.59119    29.656958    15.146644    15.617093 
    94.19837    29.667542    15.146995    15.607967 
  -34.611199    29.681895    15.150449    15.600463 
  -89.138517    29.694863    15.154362    15.594132 
  -172.81103    29.704266    15.157378     15.59324 
  -91.815847    29.706756    15.154789     15.60093 
  -31.318017    29.705574    15.148052    15.612336 
  -20.395489    29.703138    15.141709    15.627042 
    93.16731    29.699888    15.135055    15.639565 
    216.9895    29.700363    15.129473    15.646921 
   183.30973    29.709519    15.127151    15.651556 
   18.914635    29.726006    15.129689    15.652462 
   -161.0836     29.74325    15.132748    15.651179 
  -199.50091    29.754051     15.13428     15.65121 
  -129.92093    29.756872    15.136296    15.652597 
  -123.25928    29.754496    15.137786    15.656857 
   15.573879     29.74719    15.138801    15.663115 
   128.35868    29.740507    15.135921    15.675087 
   117.44657    29.738958    15.129172    15.688947 
   136.13523    29.742107    15.120451    15.703989 
   76.179191    29.750701     15.11283    15.716673 
  -105.98509    29.762342    15.109334    15.723888 
  -218.23346    29.769744       15.109    15.727369 
  -252.27329    29.768417    15.110055    15.726778 
  -36.399465    29.756999    15.112581    15.725056 
   91.350287    29.744124    15.116924    15.721672 
   175.94537    29.734904    15.123839    15.719137 
   172.40319    29.732722    15.129166    15.720424 
    175.5668    29.737436    15.128153    15.728502 
  -43.645233    29.749172    15.124104    15.739457 
  -50.340478    29.759163    15.121841    15.749281 
  -89.597693     29.76714    15.126071    15.755841 
  -158.02188    29.771533    15.134001     15.75946 
  -188.38565    29.769605    15.145274      15.7613 
   11.002963    29.760142    15.159231    15.761533 
   123.15754    29.751118    15.174744    15.759597 
    230.8126    29.747022    15.188946    15.756815 
   166.67246    29.752157    15.198668    15.759286 
  -71.056717     29.76396    15.202361    15.768112 
   6.7822359     29.77292    15.203638    15.780042 
  -108.89027    29.782152    15.206745    15.788994 
  -202.01359    29.787028    15.213955    15.794116 
   -117.9756    29.783823    15.221718    15.797573 
   -28.92832      29.7759    15.229782    15.799377 
   60.393015    29.766819    15.236474    15.800224 
   203.15544    29.760154    15.242075    15.799013 
   209.00265    29.761615    15.246607    15.797795 
   172.91271    29.771437    15.250332    15.798972 
   12.460242    29.788174    15.253176    15.802982 
  -201.95763    29.805411    15.256904    15.804531 
   -182.1477    29.814569    15.261956    15.803903 
  -143.91212    29.816441    15.269575    15.801726 
  -98.296018    29.812556    15.277621    15.797031 
  -49.940692     29.80474    15.288034    15.791316 
   38.312039    29.794926    15.298879    15.787995 
   103.43455    29.786645    15.309151    15.787117 
   114.16367    29.782501    15.317486    15.786516 
   209.05127    29.782923    15.321764    15.790495 
   44.812268    29.791708    15.325556    15.796557 
  -66.379745    29.802285    15.331464    15.799519 
  -158.71132    29.810206    15.337981    15.801417 
  -122.83527     29.81178    15.343882    15.802528 
  -138.07938     29.80844    15.350223    15.804298 
   19.810866    29.799577    15.355862    15.807597 
   45.903651    29.791506    15.364616     15.80917 
   73.674106    29.785271    15.368914    15.811722 
   164.22887    29.781984    15.368218    15.815519 
   174.85178    29.785265    15.365516    15.823598 
   81.322923    29.795541    15.362402    15.834074 
  -103.53757    29.809069    15.362339      15.8449 
  -121.72434    29.818456    15.364869    15.853759 
  -55.659608    29.822974    15.368871    15.861595 
  -125.58891    29.825266    15.373311    15.867649 
  -124.59733    29.822534    15.378954    15.874122 
  -10.002716    29.814818    15.383615    15.881012 
   40.524008    29.806702    15.390295    15.886237 
   49.287299    29.800207    15.396361    15.894493 
   19.927922    29.795684    15.401012    15.905468 
   48.364622    29.791957     15.40479    15.917078 
   22.668593    29.790166    15.407684    15.927879 
  -31.014725    29.789281    15.414106    15.937258 
  -44.243229    29.787155    15.421903    15.943414 
  -26.526204     29.78326    15.427703    15.948481 
  -50.353018    29.778303    15.432326    15.956066 
   101.47992    29.771333     15.43465    15.962027 
   55.668182    29.768422    15.434178    15.966224 
   34.555644    29.767737    15.432726    15.970123 
   13.616284    29.768435    15.427306     15.97405 
   88.041927    29.769677    15.419339    15.978759 
   73.439377    29.774441    15.410235    15.981846 
   8.9361968    29.782142    15.402143    15.983333 
  -45.314801    29.790201    15.395214    15.981745 
  -112.40975    29.796448    15.388782    15.980794 
  -30.304762    29.798198    15.383115    15.981313 
  -36.663293    29.798736    15.378334    15.979389 
  -61.525357    29.797807    15.373529    15.977024 
   17.193784    29.794417    15.367299      15.9726 
    73.88217    29.791715    15.359896    15.966459 
   141.58181    29.791969    15.353535    15.957541 
   68.914519    29.797885    15.349624    15.948374 
   5.7653428    29.806558    15.347798    15.940388 
  -106.19293    29.815462    15.348044    15.932348 
  -96.900289    29.820118    15.349926    15.925113 
  -83.585727    29.820898     15.35237    15.919609 
  -102.54845    29.818335    15.355461    15.917379 
   -6.262285     29.81167     15.36029    15.913761 
  -9.8816921    29.804754    15.366246    15.911437 
   116.71899    29.797443    15.371144     15.91027 
     101.833      29.7948    15.377505    15.907253 
   88.618237    29.796231    15.386617    15.901814 
  -33.164494    29.801207    15.394433    15.896297 
  -87.308057    29.804856     15.40175    15.889998 
  -96.944345    29.805013    15.408976    15.886986 
    30.71249    29.801292    15.414937    15.882704 
   16.626282      29.7988    15.421098    15.878897 
   28.527628    29.796972    15.424316    15.877153 
   42.724067    29.796286    15.423616    15.877595 
   120.25726    29.797309    15.422736     15.87799 
   55.669825    29.803142    15.419077     15.87832 
  -24.935159    29.811201    15.417262    15.875579 
  -141.36478    29.818264    15.421298    15.872612 
  -193.84826    29.819672    15.428451    15.868252 
  -91.653902    29.813325    15.437655    15.866596 
  -19.776592    29.803313    15.446299    15.865609 
   59.591652     29.79251    15.452723    15.866601 
   51.689848     29.78409    15.456611      15.8701 
    57.73054    29.777738    15.459112    15.876129 
   139.91077    29.773695    15.461286    15.883081 
   174.31174    29.775248    15.462338    15.892345 
  -6.5154169    29.783774    15.465912    15.902881 
  -171.02279     29.79204    15.474559    15.911463 
  -75.580079    29.793464    15.487056     15.91656 
  -16.215088    29.791865    15.500121    15.919202 
  -30.455677    29.789618    15.512204    15.921475 
   -25.68465    29.786153    15.521271    15.927222 
  -40.825267     29.78166    15.526786     15.93632 
    43.56087    29.775534    15.528694    15.946793 
   36.709433     29.77115    15.528135    15.957476 
   65.538784    29.768235    15.527952    15.965332 
   30.383829    29.767941      15.5319     15.96961 
     -30.358    29.768863    15.541518    15.976414 
   38.235788    29.768571    15.556079     15.98218 
  -5.6956416    29.769807    15.574121    15.986106 
  -57.316537    29.770816    15.591661    15.988299 
  -24.709401    29.769533    15.605911     15.99205 
  -8.0634384    29.767261    15.615564    15.999163 
   59.296223    29.764666    15.624567    16.007454 
     88.1461    29.764444    15.630804    16.016571 
  -1.8748058    29.767747    15.637022    16.023002 
  -16.288137    29.770975    15.645477     16.02535 
  0.33289923    29.773552    15.655324     16.02351 
  -29.426015    29.776142    15.667068    16.017821 
   31.281441    29.777554    15.676873    16.010342 
   70.763797    29.780219     15.68708    16.002449 
  -9.1979237    29.785713    15.694583    15.995407 
  -41.105143     29.79084     15.69817    15.989849 
  -50.368128    29.794323    15.698011    15.986849 
  -71.125759    29.795791    15.695835    15.983828 
  -29.626007    29.794413     15.69465    15.979292 
  -8.4957251    29.791851    15.695865    15.971582 
   61.257546    29.788949    15.698979    15.962328 
   85.944488    29.788498    15.704982    15.952309 
   35.327917    29.791484     15.71032    15.943661 
  -48.910033    29.795883    15.714966    15.936581 
  -150.15117    29.798326     15.71622    15.931519 
   -101.3974    29.794762    15.715007     15.92736 
  -51.664653    29.787143    15.711433    15.924679 
   25.270058    29.777457    15.703726    15.924643 
  -32.071472    29.768782    15.692158    15.924986 
   70.848252    29.758825    15.681334    15.921433 
   1.5921204    29.751701      15.6727    15.919943 
  -8.6787919     29.74464    15.666956    15.921453 
   29.600413    29.737233    15.661475    15.927861 
    10.03406     29.73101    15.656792    15.938174 
   25.596815    29.725188    15.650068    15.949656 
   35.848023     29.72039    15.642623     15.96106 
  -36.785298    29.717026    15.634526     15.97114 
  -6.9218201     29.71219    15.626831    15.983349 
   -19.66975    29.707078    15.618065    15.995441 
   21.583636    29.701178    15.610702     16.00747 
   42.884485    29.696142    15.604837    16.019786 
   28.511893    29.692822    15.601633    16.032792 
  -17.063797    29.690642    15.599578    16.047109 
   74.787226    29.687779    15.597322    16.059447 
   27.332274    29.687908    15.597679    16.072866 
  0.22973212     29.68913    15.599961    16.087966 
  -12.037096    29.690362    15.601468    16.101919 
  -32.956564    29.691111    15.600981    16.117049 
   10.753664    29.690543    15.598586    16.129536 
  -26.085574    29.690405    15.594715    16.138481 
  -31.075318    29.689223    15.591259    16.142969 
   23.018745    29.686799    15.589249     16.14654 
   2.4199625    29.685295    15.586443    16.149455 
   30.175799    29.683888    15.586748    16.151525 
   53.092641    29.683687     15.58899    16.155975 
   65.185134    29.685611    15.590932    16.161622 
   23.222224    29.690142    15.593021    16.167396 
  -77.268934    29.695602    15.593132    16.172049 
  -27.267769    29.697971    15.592123     16.17581 
   11.756564     29.69925    15.588583    16.176218 
   14.306241    29.700998    15.582768     16.17332 
   50.742896    29.703319    15.577103    16.170585 
   45.970539     29.70767    15.571787    16.167644 
   71.256016    29.713859    15.567428    16.166864 
   103.79737    29.722899    15.563743    16.169071 
   1.8180728    29.736091    15.563121    16.172186 
  -49.194625    29.749355    15.558529    16.175744 
  -80.319924    29.760652    15.552075    16.181039 
   -121.8034    29.768735    15.546196    16.183187 
  -28.402804    29.771947     15.54032    16.183171 
   50.780244    29.774023    15.534782    16.180042 
   37.134249    29.778129     15.52724    16.174658 
   119.99486    29.783721    15.519852    16.169263 
   44.440623    29.794113    15.516443    16.165191 
   18.177538    29.806283     15.51867    16.163331 
  -64.880992    29.819179    15.519628    16.163217 
  -164.55121    29.829481    15.520091    16.163763 
  -144.61783      29.8332    15.520224    16.164713 
  -37.953473    29.831135    15.521797    16.164951 
  -23.524238    29.827551     15.52381    16.164439 
  -40.360725    29.823027    15.524961     16.16042 
    36.51422    29.816888    15.526248    16.154838 
   88.640238     29.81221    15.526767    16.145909 
   45.209713    29.811077    15.527973    16.137353 
   165.85673    29.811752    15.533521    16.133858 
   82.304116    29.819062    15.543539    16.134303 
  -155.88327    29.829664    15.556215    16.139252 
  -167.71174    29.834031    15.568996    16.143268 
  -46.607464    29.831689    15.581269    16.144104 
   8.5304072    29.827483     15.59233    16.143047 
   79.784196    29.823619    15.601384     16.14074 
   144.91717    29.822945    15.606571    16.139361 
   46.269684    29.828068    15.608899    16.137798 
   94.350139    29.835043    15.608738    16.136525 
  -3.9134636    29.845791    15.605356    16.134183 
  -108.71568    29.856382    15.604113    16.131852 
  -166.51626    29.862625    15.605246    16.131475 
  -203.95899    29.862207    15.607609    16.133422 
  -16.934616    29.853631    15.609079     16.13663 
   37.797227    29.844378    15.610675    16.141116 
   13.408182    29.836636    15.611091    16.145524 
   102.21826    29.829431    15.609974    16.148008 
   213.84825    29.826314    15.609878    16.148289 
   51.138424    29.831751    15.611641    16.150748 
  -25.265056    29.839234    15.614464    16.154958 
   3.1823689    29.845707    15.620706    16.161211 
  -144.15676    29.852306    15.626904    16.168213 
  -253.83633     29.85314    15.630164    16.175779 
  -178.05858    29.843819    15.631532    16.183903 
  -35.672851    29.827377    15.630439    16.190584 
   84.802117    29.809508    15.626455    16.196611 
   117.12955     29.79503    15.622548    16.201675 
   98.232983    29.785238    15.621283    16.205908 
  -35.360413    29.779375    15.621247    16.211448 
   105.89773    29.772098    15.623456    16.218828 
   133.32195    29.769057    15.626001    16.224171 
  -85.544558    29.771348    15.622848    16.231028 
  -86.618379    29.770218     15.61436    16.239032 
  -51.350743    29.765623    15.604403    16.245974 
   46.009632    29.758974    15.594612    16.253804 
   29.935127    29.754166     15.58632    16.259193 
   50.556374    29.750554    15.578778    16.261546 
   76.935647    29.748966    15.573147    16.261777 
   97.467806    29.750454    15.572061    16.261108 
   97.507741    29.755841    15.573944     16.26271 
   15.132784    29.765129    15.581139     16.26634 
   39.053803    29.775022    15.587431    16.273973 
  -130.71858    29.786477     15.59273    16.280715 
  -43.721259    29.792703    15.594875    16.286002 
  -19.334418     29.79718    15.596698      16.2913 
    79.81001    29.800884    15.596648    16.293793 
    77.35484    29.807781    15.598596    16.296675 
  -57.452916    29.817771    15.601846    16.298646 
  -20.852013    29.825464    15.606332    16.302834 
  -22.580124    29.832322    15.615525    16.307716 
   -42.85182    29.838277    15.628229    16.314224 
  -131.25163    29.842518    15.641596    16.318552 
  -152.79406    29.841509    15.654587     16.32388 
  -36.929174    29.834389    15.667563    16.326492 
   79.596178    29.825791    15.678806    16.327172 
   109.09836    29.820377     15.68906    16.327994 
   43.580389    29.819327    15.696003     16.32478 
   28.800664     29.82002    15.701434    16.318964 
  -22.001989    29.821865    15.705081    16.313583 
  -3.1841707     29.82283    15.708619    16.308213 
  -7.1212727    29.823668     15.71232    16.305127 
  -90.502375    29.824221    15.713509    16.305712 
  -107.85518    29.821153    15.713571    16.305858 
   7.7210037    29.813772    15.709153    16.302854 
   90.778604    29.806699    15.703653    16.298105 
   69.234988    29.803258    15.698245    16.294599 
  -9.2280572    29.802586    15.693878    16.291069 
   5.3492779    29.801545    15.687935    16.285146 
  -27.017706    29.800718     15.68235    16.279958 
   52.685831     29.79881    15.681198      16.2762 
   55.599434    29.799009    15.681319     16.27419 
  -41.836061    29.801433    15.682682    16.277057 
  -99.183595    29.802183    15.683068    16.282551 
  -12.740524    29.798965    15.684199    16.288561 
   37.346821    29.795238    15.684107    16.294595 
    62.04548    29.793005    15.681492    16.300555 
  -26.491605    29.793254    15.678014     16.30377 
  -59.420845    29.792443    15.675339    16.306156 
  -12.765173    29.789256    15.676345    16.309603 
   45.419411    29.785557     15.67976    16.311646 
   37.519937    29.783676    15.683153    16.313419 
  -71.284582    29.783295    15.684497    16.317246 
  -138.70927    29.780063     15.68412    16.323138 
  -120.61684    29.771282    15.682852    16.328841 
   30.573591    29.757677    15.678954    16.330987 
   102.96424    29.745295    15.674088    16.331405 
   111.29231    29.737031    15.670828    16.327321 
  -14.566643    29.733219    15.671745    16.317759 
   75.043353    29.728825    15.676182       16.301 
   15.201737    29.727432    15.684092    16.284603 
   109.54206    29.726647    15.693808    16.267165 
    41.61633    29.730244    15.701237     16.25396 
  -18.770228    29.735505    15.702024    16.246235 
  -29.209788    29.740016    15.699714     16.24052 
  -22.394823    29.743358    15.695332    16.236645 
   55.080928    29.745805     15.69033    16.235898 
   21.891785    29.750454    15.686441    16.235915 
  -26.133519     29.75598    15.685983    16.237241 
  -25.051238     29.76046    15.691463    16.237957 
  -46.652553    29.763938    15.699571    16.236915 
   -33.30838     29.76555    15.707433     16.23591 
   7.5434703    29.765829    15.710445    16.233971 
   49.183503    29.766411    15.708451    16.235233 
  -25.064408    29.768959    15.703369    16.238637 
  -11.197225    29.770506    15.696724    16.244442 
     88.8544    29.771604    15.687666    16.248606 
   45.994403    29.776256    15.681649    16.253411 
  -31.184174    29.782748    15.680232    16.256655 
  -42.624323    29.787993    15.682685    16.257246 
   1.2595614    29.791533     15.68717    16.256952 
   13.481011    29.795123    15.690394    16.258641 
  -33.251772    29.799252    15.689114    16.263422 
  -87.342247    29.802052    15.682523     16.27031 
  -132.76274    29.801357    15.675078    16.277649 
   -19.05957    29.795353    15.667127    16.283466 
   115.49239    29.788585    15.660298    16.286743 
   52.374495    29.786438    15.656963     16.28826 
   61.974563    29.786385     15.66019    16.287431 
   75.270354    29.788812    15.668072    16.285005 
   4.8406781    29.794249     15.67637    16.281274 
   1.3392208     29.79988     15.68142     16.28016 
   23.635529    29.805564    15.682673    16.281764 
  -37.712252    29.812194    15.682163    16.283011 
  -26.416186    29.817316    15.679809    16.284019 
  -132.05353     29.82138    15.676472    16.282738 
   35.093486    29.820163    15.676876    16.278381 
   12.723948    29.820349    15.679103    16.271143 
   63.038804    29.821045    15.682834    16.263271 
   79.190733    29.824261    15.685552    16.257412 
   32.330748    29.830646    15.685078    16.253804 
  -37.122154    29.838324    15.682353    16.253155 
  -89.670223    29.844516    15.677842    16.254988 
  -19.391549    29.847122    15.670026    16.259644 
  -71.344027    29.848953    15.661862     16.26558 
  -34.164877    29.847929    15.651128     16.27173 
  -19.893236    29.845539    15.639612    16.275963 
   39.909433    29.842354    15.630053    16.277803 
   77.716572    29.840764    15.624138     16.27826 
  -7.3346459    29.842284    15.619562    16.278788 
   -31.16594    29.843509    15.614185     16.27926 
  -32.926401    29.843489    15.610264    16.280847 
  -21.450844    29.842151    15.603582    16.281848 
  -66.515983    29.839955    15.594954    16.285613 
  -84.223679    29.835099    15.585844    16.290716 
  -23.667865    29.826873    15.575876    16.295785 
  -25.098429    29.817701    15.565952    16.302548 
   121.97993    29.807525    15.557398    16.307627 
   216.76146    29.802228    15.553044    16.310785 
   59.942507    29.805602    15.552104    16.310162 
   8.3196451    29.811373    15.552217    16.310407 
  -85.363655    29.817477    15.553094    16.310367 
   55.657287    29.820167    15.551811    16.313089 
   29.968539    29.825083    15.547734    16.314376 
  -130.31582    29.831197    15.543667    16.315203 
  -77.020468    29.832099    15.539619    16.316151 
   27.843197     29.82992    15.538113     16.31675 
   155.79368    29.828855    15.537979    16.314451 
   108.12206    29.834022    15.538188    16.309196 
  -28.696726    29.843513     15.53902     16.30393 
  -92.722632    29.851857    15.539529    16.300627 
  -63.901007    29.856491    15.539474    16.297184 
   -122.0627     29.85857    15.537683    16.292518 
  -36.094227    29.855766    15.534075    16.287599 
  -25.058852    29.851519     15.52977    16.283766 
   15.932911    29.846269    15.523432    16.280592 
   20.803626    29.841656    15.517778    16.278183 
    40.67854    29.837876    15.511333    16.276849 
   22.733052    29.835722    15.507676    16.274528 
  -84.279944    29.834478    15.506861    16.267969 
  -18.751536    29.829863     15.50863    16.257904 
    11.47198    29.824498    15.509619    16.248447 
  -4.8634894    29.819591    15.511717    16.240132 
    28.78542     29.81449    15.511777    16.234961 
   10.876232    29.810541    15.511727    16.229948 
  -5.5030681    29.807026    15.508791    16.226031 
   49.841173    29.803292    15.505041    16.221572 
   10.515802    29.801551    15.501599     16.21555 
   63.616569     29.80023    15.498903    16.208759 
   35.899882    29.801455    15.498011    16.199629 
     56.3937    29.804115    15.497183    16.190814 
   166.61473    29.809031    15.498299    16.182964 
   43.557011    29.820612    15.501127    16.173005 
  -128.99385    29.833935    15.503658    16.163322 
  -36.800116    29.842098    15.503022    16.153467 
  -39.921514    29.848789    15.499805    16.146628 
  -82.408941    29.853883    15.497913    16.141335 
[...]
   -19.21567    29.622716     16.84951    15.645827 
   -29.48302    29.628622    16.848107    15.649026 
  -79.351659    29.633348    16.847249    15.652425 
  -66.518721    29.634901    16.846607     15.65545 
  -13.050524    29.633792     16.84614    15.657938 
   31.793985    29.632162    16.843797    15.661748 
    16.73738    29.631803    16.837991    15.663907 
   21.656699    29.632114    16.830185    15.662216 
  -33.704251    29.633291    16.822778    15.659927 
  -110.42435     29.63312      16.8176    15.656745 
   14.589725    29.628532    16.811378    15.655188 
  -37.873245    29.624528     16.80747    15.652068 
   66.762531    29.619009    16.804393    15.650027 
   52.145414     29.61616    16.802373    15.648322 
   53.860124    29.615397    16.800675    15.647475 
   61.461301    29.616788    16.797174    15.646502 
   21.350368    29.620638    16.791395    15.648913 
  -22.095488    29.625342    16.785077    15.652411 
    2.478636    29.629162    16.778454    15.656725 
  -14.006045    29.633081    16.774216    15.660793 
  -22.975781     29.63644    16.770823    15.665171 
   67.795458     29.63888    16.770644    15.669564 
  -18.010694    29.644032    16.772179    15.675407 
   112.81586    29.648463    16.775914    15.681767 
   66.427137    29.657407    16.781114     15.68738 
   83.595977    29.669008    16.784902    15.690561 
  -64.810174    29.683953    16.786532    15.690955 
  -201.57222    29.696305    16.781237    15.690839 
   -192.4922    29.700595    16.769314    15.691236 
  -102.52407    29.697185    16.756184     15.69288 
  -43.955971    29.689673    16.746537    15.693273 
  -1.0262502    29.680404    16.739301    15.692129 
   93.561385    29.671094    16.735004    15.688909 
   56.039693    29.665526    16.734377    15.682965 
   66.724658    29.662199    16.735379    15.674541 
  -28.980041    29.661542    16.736517    15.662955 
  -91.846218    29.659726    16.734728    15.651114 
  -99.366883    29.654235    16.725623     15.64257 
  -25.997324     29.64477    16.711067    15.636239 
   36.507267    29.634265    16.699299    15.632385 
   63.319489     29.62522    16.689094    15.627135 
   63.047047    29.618709    16.681001    15.620919 
    29.20771    29.614719    16.678317    15.609804 
    115.0093    29.611897    16.679316    15.597128 
   93.560889    29.613675    16.681294    15.584237 
   29.144706    29.619197    16.683563    15.573698 
  -106.72824    29.625883    16.682854    15.564536 
  -139.06118    29.628301    16.680318    15.557764 
  -106.86575    29.625157    16.677721    15.555121 
  -47.197972    29.617737    16.673519    15.557581 
   71.936078     29.60843    16.669459    15.560153 
   72.162905       29.602    16.666917    15.562501 
   59.084458    29.598457    16.665858     15.56559 
   107.82851    29.597277    16.667756     15.56531 
   10.670726     29.60041    16.671333    15.562647 
  -34.823866     29.60397    16.676551    15.558009 
  -111.10745    29.606137    16.682056    15.552478 
  -71.612037     29.60386    16.683805    15.548704 
  -59.065533    29.598719     16.68068    15.546651 
  -8.7178851    29.591214    16.677578    15.545797 
   103.92105    29.583361    16.674365    15.546539 
   149.89788    29.579665    16.673105    15.546574 
   164.98132    29.581965    16.674545     15.54542 
   98.870751    29.590864     16.67786    15.543716 
  -104.03532    29.603718    16.681126    15.540789 
  -131.91395     29.61241    16.683036    15.538322 
  -169.43289    29.615826    16.685097     15.53543 
  -78.119855    29.612465    16.683738    15.534875 
  -37.012496    29.605978    16.680912    15.534881 
  -19.172544    29.598012    16.676015    15.534241 
   139.65993    29.589278     16.67498    15.531121 
   138.71991    29.586131    16.677386    15.527438 
   87.274916    29.588532    16.679886    15.525286 
   22.811079    29.594425    16.680152    15.526895 
  -22.368506     29.60123    16.677865    15.529507 
  -244.02626     29.60714    16.676078    15.533719 
  -226.72323    29.603289    16.674128     15.53648 
  -79.868893    29.590369    16.674973    15.539503 
  -7.2763952    29.574255    16.679657     15.54376 
   85.178153    29.557849     16.68434    15.547951 
   149.32195    29.544851    16.690073    15.553358 
   155.27498    29.537825    16.697605    15.558063 
    178.6131    29.537011     16.70237    15.563319 
   57.518087    29.543341    16.704566     15.56774 
  -136.56889    29.551972    16.705242    15.567419 
  -160.25139     29.55514    16.703967    15.564396 
  -191.94581    29.551897    16.701266    15.560871 
  -84.519001    29.540978    16.698974    15.555152 
   119.37716    29.526677    16.699693    15.548701 
   220.58332    29.517151     16.70071    15.541088 
   264.52493    29.516449    16.702656    15.534299 
   187.70864    29.526328    16.704045    15.527742 
   28.566533    29.543715     16.70401    15.524831 
  -139.44051    29.562244    16.701767    15.523994 
  -261.07625    29.575197    16.697294    15.523998 
  -275.32283    29.577706    16.693946    15.524554 
  -99.833347    29.569202    16.688506    15.523249 
    76.53481    29.556705    16.686375    15.522472 
   111.47603    29.547269    16.687148    15.523554 
   205.85539    29.542292    16.690237    15.523563 
   137.15683    29.545549    16.696536    15.524859 
   14.543106    29.554293    16.703981    15.526801 
  -127.51038    29.563619    16.708492    15.532914 
  -143.73742    29.567844    16.708596    15.541358 
    -205.523    29.566319    16.706404    15.551099 
   -111.3605    29.556574    16.703929    15.560637 
  -13.037628    29.542374    16.703011    15.570393 
   158.37368    29.527653    16.700475    15.579409 
   233.80906    29.519266     16.69866    15.587377 
   93.242549    29.520232    16.699247     15.59154 
   112.87097    29.524928    16.700552    15.594685 
   13.369369    29.534139    16.701395    15.598875 
  -40.662434    29.543884    16.698651    15.601607 
  -6.9931948    29.552003    16.692907    15.602905 
   -227.6986    29.559842    16.683841    15.600234 
  -180.59967    29.558573      16.6766    15.596216 
  -44.041685     29.55008    16.671925    15.589422 
   90.317594    29.539826    16.670529    15.585604 
   156.90177    29.533184    16.672305    15.581532 
   131.77082    29.532818    16.677682    15.577906 
   103.13463    29.537723    16.684912    15.575299 
  -19.782456    29.546754    16.694134    15.571287 
  -34.641723    29.554993    16.704491    15.566761 
   -217.4517    29.561847    16.714858    15.560873 
  -249.65918    29.560002    16.722482    15.554524 
  -133.31539    29.548171     16.72967    15.548397 
   13.193715    29.531008    16.737105    15.543433 
   151.64153    29.514372     16.74519    15.542995 
    232.9074    29.503802    16.752776     15.54547 
   135.80381    29.502548    16.760791    15.546934 
   56.645798    29.506726    16.770556    15.548454 
  -59.103932     29.51317    16.779228    15.547961 
  -116.91663     29.51725    16.787219    15.543706 
  -151.01399    29.516654    16.793917     15.53592 
  -194.73409    29.510017    16.798453    15.527919 
  -45.026726     29.49559     16.80281    15.517987 
    55.21537    29.479362    16.805392    15.510365 
    208.7444    29.465343     16.80531    15.506414 
   236.61832    29.459674    16.804823    15.500922 
   227.85747    29.463469    16.805106     15.49741 
   76.960118    29.476379    16.808978    15.496743 
  -61.239505    29.492367    16.815559    15.495285 
   -131.8828    29.505906    16.821385    15.493196 
  -222.77418    29.514169    16.827583    15.492514 
  -188.23054    29.513522    16.834859    15.490511 
  -99.344725    29.505345    16.842018    15.489728 
   29.012505    29.493194     16.84775    15.489857 
   148.02392    29.482204    16.851322    15.496066 
   191.01727    29.477135    16.851459    15.506453 
   116.57351    29.479706    16.852122    15.517585 
   102.61161     29.48694    16.854317    15.526146 
  -27.685086    29.498279    16.859665     15.53246 
  -158.75061    29.508511    16.867394    15.534126 
  -156.20706    29.512392    16.877176    15.529825 
   -103.0519    29.510025    16.885709    15.523709 
   39.320685    29.503536    16.895783    15.516926 
   27.467292     29.49862    16.905459    15.511684 
   105.23968    29.494803    16.915757    15.509148 
   105.42565    29.495195    16.923193     15.51243 
   119.58389    29.499804    16.927938    15.518296 
   139.24479    29.509197    16.930953    15.521884 
   -68.94912    29.524159    16.933358    15.521356 
  -141.94836    29.536364    16.938145    15.515731 
  -163.20467     29.54289    16.942786    15.506171 
  -81.902278    29.542888    16.945837    15.496954 
   22.234594    29.539611    16.947293    15.486693 
   16.022439    29.537222    16.947985    15.478235 
   23.348635    29.535475    16.947339    15.473473 
  -6.7001035    29.534661    16.946644    15.470865 
  -40.700643    29.533579    16.946145    15.467069 
     19.4902     29.53087    16.944231    15.463401 
  -20.445141     29.52894    16.942802    15.457734 
  -83.958878    29.526192    16.942124    15.452876 
  -17.478864    29.520086    16.941694     15.45006 
   95.495142     29.51328    16.943466    15.449643 
   15.581433    29.510295    16.945433    15.451449 
   54.598052    29.507933    16.946124    15.457631 
   14.711077    29.507754    16.944684    15.466138 
  -60.789166    29.508164    16.942529    15.474938 
  -13.319077    29.506143     16.93891     15.48145 
  -59.829932    29.503589    16.933955    15.485219 
   120.09106    29.498641    16.928934    15.487328 
   32.966831    29.498497    16.924172    15.488336 
   66.831274    29.499672    16.920158    15.489458 
    40.68684     29.50352    16.914439    15.491043 
   51.982762    29.508996    16.908249    15.494045 
  -81.854095    29.516551    16.901348    15.498955 
   -60.69463    29.520832    16.894904    15.502683 
  -107.81058    29.522685    16.889186    15.506416 
  -32.595919    29.520225    16.885705    15.506674 
   5.9765633    29.516462    16.879452    15.505916 
   180.15624    29.512938     16.87214    15.506554 
   69.718819     29.51662     16.86488    15.510291 
  -41.735344    29.523091    16.856684    15.513628 
  -193.92792    29.527892      16.8472    15.517504 
  -41.801674    29.524936     16.83838    15.523202 
   29.487664    29.520308    16.832968    15.528656 
  -76.573511     29.51686     16.83077    15.529228 
  -2.8033448    29.510349    16.830588    15.526851 
  -17.571304    29.503725    16.830935    15.522656 
   19.751058    29.496399    16.832259    15.515266 
   29.673997    29.489863    16.833683    15.506601 
     72.9776    29.484514    16.832047    15.499231 
   58.022502    29.482084    16.826006    15.494365 
   12.126037    29.481974    16.816796    15.493538 
  -18.166314     29.48235    16.806973    15.493708 
   32.935039    29.481999    16.799028    15.493823 
  -42.741017    29.482966    16.792213    15.491732 
  -81.912146    29.482223    16.787335    15.486681 
    6.045448    29.478203    16.785451    15.477939 
    98.03162    29.474425     16.78521    15.466493 
   185.22021    29.474569    16.789083    15.453062 
   172.72421    29.482121    16.793447    15.440183 
   24.312659    29.496583    16.796573    15.428883 
  -78.008845    29.512016     16.79587    15.418119 
  -45.578271     29.52433    16.795305    15.406802 
   -82.53504     29.53482     16.79484    15.394342 
   26.814295    29.542009    16.798191    15.377749 
  -86.208937     29.55027    16.804912    15.359802 
  -48.041205    29.555084    16.812721    15.340899 
   15.508275    29.557975     16.82048    15.319373 
   23.686139    29.561487    16.826109    15.296984 
    23.63961    29.565946    16.826817    15.277525 
  -86.925986    29.571351    16.827073    15.262865 
  -73.365693    29.573279    16.824878    15.251768 
   -39.80617    29.572272    16.821942    15.243422 
   81.794949    29.569673     16.81856    15.235665 
  -7.9895072    29.570346    16.817474    15.225474 
  -39.745397    29.570699    16.818288    15.214296 
  -22.611083    29.569462     16.82077    15.201595 
   45.134968    29.567321    16.826951    15.185304 
   35.668103    29.566985     16.83196     15.17048 
   63.428748    29.568076    16.835385    15.161883 
   27.853117    29.571704    16.836516    15.159369 
  -41.177256    29.576447    16.836832    15.164242 
   23.529593    29.579542    16.835928    15.172596 
    61.53226    29.583578    16.838755    15.181115 
   17.419116    29.590076    16.841756    15.185776 
  -60.389245     29.59727    16.845749    15.182426 
  -68.245724    29.602049    16.852212    15.178027 
   -99.02187    29.604098    16.861328    15.169407 
  -41.649266    29.602186    16.869835    15.160148 
  -23.294145    29.598608    16.875422    15.153229 
  -3.9267306    29.594099    16.878156    15.152133 
   32.386079    29.589432     16.87999    15.155034 
   20.056077    29.586061    16.884732    15.161765 
   12.250473    29.583492    16.891682    15.168884 
  -35.562345    29.581413    16.896697    15.175907 
  -30.227764    29.577912    16.903334    15.179067 
  -46.158473    29.573201    16.910249    15.182265 
 -0.19107508    29.566644    16.919198    15.183868 
  -24.010102     29.56008    16.924837    15.190444 
   23.623012    29.552555    16.924496    15.203083 
   55.555547    29.545975    16.925062    15.221196 
   122.28735    29.541617    16.926672     15.24081 
   110.12205    29.542151       16.931    15.259757 
   80.212457    29.547089    16.934547    15.274652 
   37.198512    29.555236    16.938016     15.28416 
  -90.756801    29.564871    16.939466    15.289075 
  -67.599874    29.570876    16.942478     15.29324 
  -72.432928    29.574177    16.944585     15.29936 
   33.975893     29.57458    16.939658    15.308925 
   115.43364    29.576343    16.927224    15.320657 
    72.44196    29.582722     16.91334    15.333457 
  -13.459119       29.592    16.900606    15.346071 
 -0.91400022    29.600739    16.888339    15.353208 
  -67.623352    29.609442    16.874823    15.352937 
  -50.957402    29.615439    16.864213    15.350252 
  -174.96612    29.619399    16.858707    15.346462 
  -67.617555    29.616359    16.855881    15.342232 
  -10.414827    29.610615    16.851967    15.339352 
   10.452509    29.604455    16.845155    15.341749 
   45.643311    29.598712    16.832655    15.350543 
    93.28689    29.594795    16.816857    15.360246 
   68.326662     29.59461    16.798847    15.366517 
   8.6411746    29.597158    16.781842    15.364564 
   5.6193002    29.600051    16.770018    15.358551 
  -94.521725     29.60317    16.760666    15.351664 
  -104.77346    29.602507    16.754158    15.346778 
   -29.94147    29.597653    16.751639    15.344562 
  0.14930941    29.591602    16.749711    15.346291 
    47.62572    29.585557    16.746321    15.352445 
   14.934851    29.581416     16.74062    15.361699 
   13.030187    29.577874    16.734936    15.369371 
   22.218534    29.574852    16.731257    15.376506 
   46.671186    29.572719    16.727491    15.380647 
   55.795858    29.572453    16.729304    15.382498 
   50.141723    29.574419    16.735551    15.383757 
  -6.7926927     29.57839    16.746849    15.383387 
   46.297181     29.58209    16.759945    15.387344 
   37.482254    29.587641    16.771187    15.393515 
  -14.249183    29.594692     16.78195    15.400092 
  -2.1013499    29.601173    16.788704     15.40845 
  -28.090378     29.60757    16.794908    15.415495 
   50.378183    29.612843    16.798607    15.423171 
  -3.1447077    29.620132    16.797225    15.430709 
   21.734847    29.627294    16.792647    15.438601 
   12.977547    29.635326    16.789864    15.447803 
  -70.594793    29.643877    16.789237    15.457151 
  -101.07254    29.649605    16.789313    15.463384 
  -7.0180551    29.651289    16.788555     15.47008 
  -89.517486    29.652693    16.788497    15.476358 
  -104.43082    29.650516    16.788866    15.476637 
   1.3811618    29.644161    16.791175    15.477664 
   20.485596    29.637862    16.795869    15.477716 
   11.189011    29.632383    16.801218    15.479298 
   32.604195    29.627351     16.80201    15.484002 
   -5.366625    29.623623    16.801147    15.488348 
  -58.605873     29.61968    16.799357    15.495717 
  -29.787794    29.613394     16.79751    15.502442 
  -44.927947    29.605915    16.795328    15.509275 
  -135.50717     29.59664     16.79262    15.511437 
  -41.849249    29.581944    16.791121     15.51147 
   161.68039    29.565575    16.791071    15.510559 
   132.60662    29.555672    16.792519    15.509688 
   183.98955    29.551074     16.79619    15.509023 
   105.94657    29.553835     16.80015    15.510293 
   47.408636    29.560835     16.80215    15.513086 
   19.638545     29.56973     16.80425    15.518089 
   5.4895494    29.579412    16.805097    15.522244 
  -79.529176    29.589312    16.807384    15.521478 
  -83.375791    29.596032    16.810128    15.518364 
  -46.153315    29.599416     16.81718    15.514185 
   12.908275    29.600955    16.826907    15.511929 
   10.938073     29.60301    16.838235    15.509501 
   26.437753    29.605502    16.846953    15.508151 
  -54.624004    29.609052    16.850794    15.507491 
  -14.629656    29.610416      16.8502    15.505218 
  -40.478308    29.611196    16.845025    15.503283 
  -39.949275    29.610357     16.84024    15.500019 
  -77.968985    29.607919    16.837373    15.495625 
  -110.41128    29.602363    16.838265    15.490386 
  -63.181143     29.59239    16.843083    15.484694 
   38.243675     29.57989    16.851527    15.481684 
   85.909655     29.56892    16.858645    15.477498 
   125.20718    29.561386    16.859648     15.47242 
    74.65661    29.558861    16.854084    15.467129 
   51.662867    29.559322    16.841544    15.462956 
  -6.9169345    29.561849    16.828825    15.458741 
  -71.569153    29.564099    16.816537    15.455489 
  -54.240053    29.563487    16.804402    15.455044 
  -143.21645    29.560705    16.797488    15.457305 
  -31.785449    29.552195    16.795808    15.459498 
   101.43369    29.542413    16.797608    15.463548 
    187.5159    29.536689    16.801685    15.468328 
   166.32438    29.538465    16.804187    15.468452 
    32.16195    29.546894    16.800008     15.46295 
   36.050612     29.55661    16.792192     15.45383 
  -11.277104    29.567767    16.783264    15.446822 
  -129.71356    29.578474    16.773556    15.442603 
  -187.43409    29.583992    16.767133     15.44115 
  -139.59055    29.582012    16.764636    15.441489 
  -49.712865    29.574449    16.766414    15.444158 
   91.743179    29.564898    16.773904    15.447153 
   133.85248    29.559016    16.783773    15.451127 
Loop time of 302.311 on 4 procs for 50000 steps with 8887 atoms

Performance: 285798.187 tau/day, 165.392 timesteps/s
99.9% CPU use with 4 MPI tasks x no OpenMP threads

MPI task timing breakdown:
Section |  min time  |  avg time  |  max time  |%varavg| %total
---------------------------------------------------------------
Pair    | 182.5      | 221.22     | 260.75     | 254.6 | 73.18
Bond    | 0.0097563  | 0.012774   | 0.016761   |   2.6 |  0.00
Neigh   | 30.735     | 30.754     | 30.776     |   0.3 | 10.17
Comm    | 8.9631     | 48.254     | 86.707     | 542.3 | 15.96
Output  | 0.68789    | 0.7401     | 0.84133    |   7.2 |  0.24
Modify  | 0.59773    | 0.78892    | 0.97098    |  17.5 |  0.26
Other   |            | 0.5436     |            |       |  0.18

Nlocal:    2221.75 ave 2673 max 1776 min
Histogram: 2 0 0 0 0 0 0 0 0 2
Nghost:    5513.25 ave 5959 max 5062 min
Histogram: 2 0 0 0 0 0 0 0 0 2
Neighs:    340976 ave 398855 max 283511 min
Histogram: 2 0 0 0 0 0 0 0 0 2

Total # of neighbors = 1363903
Ave neighs/atom = 153.472
Ave special neighs/atom = 0.00540115
Neighbor list builds = 5000
Dangerous builds = 5000
Total wall time: 0:05:02
