LAMMPS (17 Nov 2016)
Reading data file ...
  orthogonal box = (0 0 0) to (60 30 30)
  2 by 1 by 2 MPI processor grid
  reading atoms ...
  8887 atoms
  scanning bonds ...
  1 = max bonds/atom
  reading bonds ...
  9 bonds
Finding 1-2 1-3 1-4 neighbors ...
 Special bond factors lj:   0          0          0         
 Special bond factors coul: 0          0          0         
  2 = max # of 1-2 neighbors
  2 = max # of 1-3 neighbors
  4 = max # of 1-4 neighbors
  6 = max # of special neighbors
10 atoms in group polymer
1 atoms in group first
Neighbor list info ...
  1 neighbor list requests
  update every 1 steps, delay 10 steps, check yes
  max neighbors/atom: 2000, page size: 100000
  master list distance cutoff = 3.3
  ghost atom cutoff = 3.3
  binsize = 1.65, bins = 37 19 19
Setting up Verlet run ...
  Unit style    : lj
  Current step  : 0
  Time step     : 0.02
Memory usage per processor = 4.13948 Mbytes
v_ftotal c_com[1] c_com[2] c_com[3] 
   96.786285         17.5           15           15 
   89.262635    17.502761    15.003346    15.011499 
   35.947375    17.509093    15.006083    15.020868 
   13.048242    17.516863    15.006186    15.027403 
   107.50389    17.525155    15.007345    15.032388 
   86.815542    17.537747    15.008676    15.038868 
   91.754852    17.553812    15.010327    15.048156 
   71.320111    17.573546    15.010706    15.057544 
   87.902402    17.596134    15.010889    15.067149 
   31.648899    17.622238    15.012731    15.074632 
   23.774705    17.649607    15.015818    15.082021 
   30.305561    17.677928    15.019362    15.090109 
   100.98429    17.707461    15.024306    15.097117 
   26.863466    17.741033    15.028326    15.104888 
   42.029533    17.775679    15.032229    15.113755 
   61.564367    17.812007    15.037402    15.120282 
   1.0673072    17.850798    15.041319    15.128479 
   66.406449    17.889631    15.044683    15.135116 
   41.025546     17.93112    15.049448    15.141327 
   62.449003    17.974251    15.052512    15.147745 
   31.455672    18.019879    15.053875    15.156241 
   31.333801    18.066766    15.053965    15.163414 
   85.423302    18.114906    15.055447    15.171006 
  -7.6527983    18.166463    15.055562    15.180698 
   32.188938    18.217714    15.055183    15.189921 
  -0.4872714    18.270252    15.053883    15.198723 
   19.510478    18.322771    15.052347    15.207666 
  -7.4708096     18.37607    15.053525    15.215214 
   15.902393    18.429071    15.057672    15.223612 
   10.565552    18.482707    15.058692    15.232146 
   8.3753896    18.536767    15.059974    15.239662 
   68.657084    18.591161    15.061373    15.246682 
   57.772115    18.648301    15.061074    15.253798 
 -0.15073973    18.707753     15.05879    15.263483 
   78.725169    18.767198    15.055825    15.272159 
 -0.03458075    18.829792    15.053402     15.28089 
   18.255823    18.892385     15.05201    15.288422 
   25.159746    18.955708    15.052741     15.29595 
   4.9283898    19.020038    15.056459    15.302242 
   20.139832    19.084565    15.060443    15.309436 
  -13.431229    19.149897     15.06422    15.314922 
   24.750675    19.214692    15.066439    15.319387 
   60.421065    19.280477    15.069044    15.324414 
  -2.4753115    19.348679    15.071765    15.329574 
    46.94673    19.416782    15.075821    15.334246 
  -14.504537    19.486763    15.080032    15.338119 
   41.276734    19.556164    15.082755    15.340683 
   35.433171    19.627215    15.084408    15.344553 
  -7.1326746    19.699684    15.086089    15.347101 
  -4.0369942    19.771868    15.086842    15.349746 
  -3.3618881     19.84389    15.086018    15.353484 
   18.920811    19.915778    15.085309    15.357539 
   15.786102    19.988423    15.084758    15.361176 
   36.293985    20.061699    15.083938    15.365089 
   76.699396    20.136426    15.082435    15.369411 
   5.6056901    20.214222    15.080004    15.372964 
   1.7419196    20.292242    15.077423    15.377696 
   4.5619207    20.370332    15.076527    15.383603 
   47.578672    20.448604    15.074607    15.388752 
  -11.532004    20.528779     15.07087    15.393218 
   5.2745068    20.608493    15.067209    15.396785 
  -26.280919    20.688418    15.064295    15.399725 
    33.33154    20.767292    15.063535     15.39886 
   -32.87999    20.847499    15.062644     15.39815 
   -3.078833    20.926391    15.061129    15.398403 
  -42.020776    21.005159    15.060216    15.398861 
  -44.640061    21.082247    15.060418    15.398867 
   11.967043    21.157549    15.059398    15.398168 
   18.041648     21.23333     15.05979    15.398563 
  -9.1356269    21.309833    15.058604    15.400866 
   9.4926213     21.38597    15.054682    15.403836 
  -19.403246    21.462487    15.051051    15.406245 
   3.2122594    21.538228     15.04794    15.409245 
  -53.165299    21.614097    15.046386    15.414068 
  0.77268256    21.687839    15.043624     15.41807 
  -21.381807    21.761613    15.040039    15.423461 
  -23.868817    21.834531    15.036825    15.427658 
  -19.857388    21.906495    15.034442    15.430406 
   16.601033    21.977664    15.032097    15.430493 
   44.098606    22.049497    15.028666    15.429283 
  -94.399833    22.123094    15.025569    15.426462 
  -50.490492    22.192915    15.021792    15.426722 
   17.040881    22.260717    15.018083    15.428245 
  -10.596668      22.3292    15.013851     15.42781 
   5.5713462     22.39726     15.00982    15.427745 
  -20.059519    22.465542    15.004758    15.427736 
   65.217445    22.533022    15.000211    15.428247 
  -2.0164418     22.60311    14.995713    15.427964 
  -24.307862    22.673118    14.993533    15.427464 
  -6.2007895    22.742153    14.989785    15.425937 
   -52.80151    22.810941    14.988254    15.427468 
   14.183965    22.877616     14.98598    15.428385 
   -54.94749    22.944859    14.981778    15.429558 
  -7.8353827    23.009904    14.977562    15.427843 
   23.229893    23.074636    14.970625     15.42492 
  0.81928845    23.140296    14.963978    15.422864 
   4.8643811     23.20599    14.955038     15.42167 
   4.4092165    23.271878    14.944179    15.421852 
   51.342781    23.337942    14.932687    15.422676 
   25.383518     23.40606     14.92139    15.425252 
   40.170624    23.475194    14.909873    15.429604 
  -18.983234    23.545934    14.897522    15.433136 
   15.249828    23.615915    14.886188    15.438747 
   49.718979    23.686506     14.87704    15.446598 
   10.293037    23.759085    14.868473    15.455905 
   23.000617    23.832077    14.857902    15.464326 
   35.224577    23.905988    14.847261    15.473068 
  -27.976494    23.981309    14.836239    15.477905 
  -44.099548     24.05551     14.82391    15.474837 
   34.357017    24.127947    14.809802    15.469431 
   22.545291    24.201759    14.795121    15.464292 
    18.91553    24.276473    14.783211    15.458689 
  -9.6166866    24.351943    14.773388    15.453357 
  -56.462075    24.427028    14.766006    15.451859 
  -21.180589    24.499855    14.759785    15.453211 
  -22.036174    24.571835    14.758102     15.45612 
   1.1627988    24.642933    14.760839     15.45456 
  -59.009275    24.714078     14.76375    15.447105 
  -53.148307    24.782862    14.759191     15.43748 
  -61.624593    24.849521    14.749397    15.429891 
   -64.13101    24.913714    14.737489    15.423594 
  -9.0063323    24.975343    14.728393    15.419733 
 -0.10106923    25.036611    14.720134     15.41707 
  -35.196447    25.097874    14.713255    15.418789 
  -39.785203    25.157731    14.708376    15.422582 
   -102.3763    25.215995    14.706124    15.428332 
  -5.1751038    25.270165    14.706475    15.438243 
   11.787522    25.324128    14.708829    15.451257 
   7.0022513    25.378562    14.713619    15.466245 
  -90.092481    25.433276    14.718844    15.483045 
    -140.812    25.484386    14.721739    15.494749 
  -17.801455    25.529865    14.713738    15.487235 
  -121.15604    25.574631    14.706751    15.468538 
  -91.913708     25.61455    14.706644    15.442882 
  -41.750956    25.650793    14.709519    15.418741 
  -103.35877    25.685367    14.713362    15.397029 
  -7.1079843    25.715805    14.718507    15.377409 
  -14.468683     25.74596    14.724145    15.361244 
  -15.346042    25.775536    14.729786     15.34795 
   -50.38762    25.804498    14.733612    15.336878 
   40.985406    25.831444    14.735855    15.325268 
  -35.963169     25.86003    14.736081    15.313593 
   5.8625365    25.887177    14.733539      15.2999 
  -13.364606    25.914559    14.731536    15.285395 
  -27.908061    25.941406    14.729739    15.273322 
   -45.10109    25.967137    14.731289    15.264588 
  -48.052572    25.991064    14.735759    15.257115 
  -32.858319    26.013069    14.740824     15.25173 
   13.301729    26.033759    14.746345    15.248112 
   83.394495    26.054981    14.751566    15.249408 
  -11.695653     26.07954    14.757176    15.250602 
   6.4460666     26.10363     14.76347     15.25358 
   37.040771    26.127978    14.771154    15.253573 
  -17.505848    26.153808    14.779529    15.250277 
   23.162567    26.178938    14.784471    15.240031 
  -2.7106031    26.204994     14.77839    15.215621 
   9.9736656    26.230942    14.770741     15.19366 
  -86.406846    26.257289    14.763785    15.177421 
   -44.31222    26.280179    14.757531    15.167368 
  -31.781874    26.301297    14.748658     15.15852 
   17.629006    26.321144    14.738752    15.150982 
   -27.32038    26.341695    14.730472    15.145538 
  0.78460891    26.361154    14.724658    15.139129 
  -23.209353    26.380645    14.720759    15.129619 
   27.012777    26.399207    14.718585    15.120731 
   42.231321    26.418849    14.718038    15.115793 
    19.15555    26.440181    14.720029    15.115683 
   14.185247    26.462279    14.718057    15.121354 
  -27.080235    26.484944     14.71607     15.12786 
  -34.258624    26.506527    14.713279    15.135253 
  -63.316579    26.526739    14.711927    15.141428 
  -88.403389    26.544418    14.712678    15.144416 
  -43.386801    26.558561    14.715792    15.141115 
  -20.661651    26.570968    14.719277     15.13317 
   -2.008367    26.582549    14.724233    15.123821 
   32.553667     26.59405    14.730398    15.115864 
 -0.79620057    26.606853    14.736899    15.110462 
   9.8340738    26.619624    14.742331    15.110878 
   14.432377    26.632789    14.746548    15.119082 
  -31.803756     26.64653    14.746025    15.132526 
  -107.97548       26.659    14.744763    15.142073 
  -15.075716    26.667151    14.741847    15.139865 
  -6.6842201    26.674698    14.738968    15.132892 
   16.248597    26.681978    14.738486    15.128077 
  -43.494868    26.689908    14.740546    15.123511 
  -16.204658    26.696099    14.744219    15.118112 
   25.619389    26.701641    14.748442    15.113991 
   31.751936    26.708208    14.753797    15.112678 
   12.558499    26.716045    14.759305    15.114531 
  -9.6941709    26.724384    14.762057    15.117987 
   70.354433    26.732336    14.763526    15.120895 
  -10.797949    26.743101     14.76818    15.122372 
  -71.684512    26.753435     14.77547    15.119039 
  -82.888263    26.760902    14.780566    15.114745 
  -36.881859    26.765053    14.784283    15.110401 
  -56.331819    26.767728    14.785687    15.108638 
  -64.557699    26.768151    14.785937    15.109493 
  -28.046524    26.765991    14.787596    15.114355 
  -66.979787    26.762709    14.791484    15.121251 
  -24.145292    26.756748    14.793691    15.132004 
  -86.122683    26.749821    14.795278     15.14616 
  -86.147571    26.739449    14.800185    15.161284 
   -61.71644    26.725632    14.806321    15.168292 
   87.772285    26.709345    14.813093    15.166076 
   89.781142     26.69657    14.816285    15.158058 
   30.903379    26.687386    14.817833    15.149341 
   51.456635    26.679438    14.818089    15.143894 
   60.811904    26.673548     14.81841     15.14182 
  -11.932913    26.670091    14.819572    15.146842 
   23.342834    26.666156    14.823677    15.156578 
   15.188027    26.663155    14.827807    15.171334 
  0.11347599    26.660762    14.831418    15.188672 
   45.504929    26.658373    14.836181    15.204684 
 -0.52743911    26.657805    14.839958    15.214613 
   -67.21094    26.657215    14.833503    15.209572 
  -102.91355    26.653937    14.821585    15.200164 
  -84.449533    26.646542    14.803317    15.189302 
  -25.995778    26.635769    14.786382     15.18042 
  -50.437465    26.623957    14.773079    15.175761 
    19.26641    26.610127    14.763654    15.176124 
   11.216857    26.597068    14.759545    15.181859 
   14.497149    26.584457    14.758989    15.195051 
   28.713938    26.572426     14.76288     15.21626 
   15.528673    26.561544    14.769609    15.243426 
  -10.243191    26.551283    14.778191    15.272298 
   43.153736    26.540612    14.783253    15.285696 
  -6.3397794    26.531667    14.781591    15.278966 
   -13.66191    26.522469    14.774963     15.26033 
   12.758825    26.512724    14.770308    15.242396 
   65.959572     26.50349    14.768968    15.230507 
   36.158663    26.496894     14.77203    15.224037 
   61.940548    26.491744    14.778112    15.223247 
    104.9977    26.489072    14.784477    15.227788 
   87.750966      26.4906    14.785639    15.235685 
  -9.3556271    26.495638    14.784432    15.250058 
  -2.5909745    26.500302    14.785119    15.271241 
  -90.290415    26.504862    14.785619    15.294132 
  -166.09406     26.50581    14.783031    15.306716 
  -117.44728    26.500115    14.773916    15.308044 
  -20.140385    26.489722    14.765391     15.30862 
   53.346617    26.478523    14.759932    15.312213 
   30.779655    26.469458    14.757967    15.321544 
   27.839478    26.461624    14.756672    15.335869 
   94.248163    26.454904    14.753304    15.349419 
   39.555067    26.451954      14.7498    15.363008 
  -22.371595    26.450586    14.748681    15.378379 
  -58.777811    26.448323    14.749481    15.394246 
  -78.368376    26.443709    14.746266    15.407205 
  -174.08392     26.43596    14.735319    15.414496 
  -47.708663    26.421248    14.723556    15.416284 
   61.230394    26.404627    14.715647    15.418498 
   50.452361    26.390456    14.709207    15.428381 
   73.296121    26.378303    14.705104    15.443856 
   34.452654    26.369082    14.702616    15.463825 
   15.439243    26.361238    14.700529    15.477769 
  -17.763484    26.354013    14.701238    15.485259 
   6.2659679    26.346077    14.704597    15.487796 
     7.41601    26.338391    14.710971    15.487924 
  -70.592507    26.331002    14.718308    15.489923 
  -182.95576    26.320789    14.724504    15.492226 
  -104.45748    26.303259    14.727533    15.491166 
  -3.0944733    26.281549    14.730756    15.490754 
   75.254077    26.259717    14.733211    15.492222 
   88.701367    26.240894    14.737445     15.49628 
   91.179326    26.225619    14.740558    15.500583 
    61.32334    26.213992    14.738974    15.500963 
   36.892113    26.204817    14.738074    15.503939 
  -1.5729849    26.197118    14.737298    15.507052 
   0.9323972    26.189356    14.740611    15.512334 
   25.917088    26.181632    14.747948    15.519745 
  -78.561621    26.174944    14.754485    15.524485 
  -25.236632    26.165114    14.759659    15.523294 
    10.22349    26.154274    14.765293    15.519274 
   34.463857    26.143843    14.771353    15.519216 
   59.262204    26.134791    14.774786    15.521184 
    78.56596    26.128109    14.775164    15.526225 
   85.022269     26.12457    14.774873     15.53262 
   120.99715    26.124431    14.774717    15.540994 
  -2.6665644    26.129133    14.777174    15.549543 
   87.043558    26.133728    14.781029    15.557925 
  -77.407468    26.141805    14.786417    15.564048 
  -85.046198    26.146785    14.793363    15.568808 
  -23.549242    26.148364    14.800455     15.57336 
   37.143949       26.149    14.809442    15.579331 
   62.311207    26.151123    14.817479    15.586783 
   44.455731    26.155737    14.825027     15.59419 
   37.010116     26.16213    14.827875    15.605093 
   73.231228    26.170004    14.829791    15.619431 
   20.098855    26.180807    14.832412     15.63279 
   -44.67547    26.192413    14.833255    15.645709 
   -98.26152    26.202233    14.832651    15.656011 
  -124.80614    26.208122    14.829292    15.665808 
  -77.315844    26.209019    14.828317    15.674213 
  -85.165019    26.206823    14.828435    15.682115 
    62.44702    26.201221    14.831177     15.69114 
  -15.459064    26.198116    14.837608    15.700749 
    28.50651    26.194393    14.840096    15.710802 
   48.285181    26.191811    14.839926    15.720718 
   40.453773     26.19116     14.83679    15.728612 
   57.340312    26.192127    14.831709     15.73633 
   28.560487    26.195387     14.82892    15.744106 
  -17.333073     26.19979    14.827076    15.751214 
   37.279883      26.2035    14.826683    15.756473 
  -41.180504    26.208701     14.82534    15.762936 
  -21.568243    26.212255    14.820791    15.765836 
  -5.1077318    26.214946    14.814414    15.766603 
   53.706163    26.217432    14.805905    15.767031 
   121.69061    26.222067    14.797859    15.768738 
   44.093564     26.23157    14.791466    15.770889 
    64.72513    26.242836    14.784282    15.774793 
   30.338735    26.256691    14.777218    15.780874 
  -66.246407     26.27176    14.770167    15.790664 
  -85.896729    26.284179    14.767878    15.802408 
   -59.81184    26.293162    14.768705    15.813628 
-0.0047263427    26.299753    14.765558    15.825898 
  -13.085977    26.306343    14.758289    15.840216 
  -25.966402     26.31241    14.748337    15.855082 
  -22.821852    26.317438    14.732802    15.871473 
   19.048629    26.321554    14.714884    15.888322 
   15.575979    26.326431    14.697091    15.905452 
   3.3553444    26.331932    14.679363    15.921877 
  -75.443368    26.337566    14.665514    15.939393 
   -38.13064    26.340183    14.655797     15.95637 
  -18.509824    26.341275    14.650699    15.969149 
  -53.690661    26.341626    14.646507      15.9785 
  -19.453224     26.33983    14.647585    15.987714 
  -24.993922    26.337256     14.65064    15.996733 
   20.909995    26.333681    14.652136    16.004489 
   80.214981    26.330944    14.651726    16.013315 
   2.1954415    26.331414    14.647982    16.024348 
   37.571007    26.331973    14.644958    16.036193 
  -21.419616    26.334034    14.640599    16.051533 
 -0.49386494    26.335239    14.634968    16.068533 
   26.985976    26.336424    14.629591    16.082111 
  -3.1034867    26.338688    14.621473     16.09329 
  -21.910865    26.340829     14.61102    16.102355 
    28.95204    26.342092    14.600464    16.110128 
   30.550289    26.344514    14.589494    16.117891 
   51.167363    26.348158    14.581121    16.124429 
   10.665138    26.353849    14.572422    16.131671 
  -9.6808804    26.359966    14.564445     16.13814 
   -37.12414    26.365696    14.558752    16.147453 
   -59.40853    26.369941     14.55224    16.157928 
  -22.775433    26.371809     14.54509    16.166669 
   5.3575006    26.372767    14.537089    16.175382 
  -6.5817459    26.373939    14.529834     16.18517 
   78.879792    26.374847    14.523868     16.19569 
   36.038248    26.378911    14.518693    16.205644 
  -15.590636    26.384417    14.514481       16.216 
  -81.736144    26.389298    14.514157    16.226638 
  -57.099914    26.390911    14.517001    16.236735 
  -35.848921    26.390239    14.523448    16.246379 
  -19.146515    26.388133    14.531713    16.256695 
   28.004146    26.385262    14.539366    16.263563 
    33.11713     26.38351    14.546692    16.267564 
   10.078185    26.383084    14.551869    16.271731 
   19.430631     26.38306    14.555988    16.273796 
   95.985221    26.383814    14.556549    16.273536 
    73.93091    26.388407    14.556898    16.275846 
  -9.8199715    26.395957    14.554842    16.280968 
  -3.2765061    26.403115    14.556132    16.287079 
  -39.314067    26.410141    14.560263    16.291885 
   14.483906    26.415595    14.566876    16.296651 
  -14.176101    26.421628    14.573094    16.301099 
  -56.623627    26.427095    14.581313    16.304788 
   105.86619    26.430296    14.588579    16.310153 
   50.274948    26.437732    14.590657    16.315234 
    31.28258    26.447179    14.586229    16.319745 
   100.05253    26.457877    14.579095    16.326874 
   106.46157    26.472577    14.572321    16.338965 
   -19.76351    26.491536    14.569471    16.356224 
   -85.94057    26.509704    14.568275    16.376887 
  -107.21165    26.524435    14.570703    16.396473 
  -73.285722    26.534877    14.575036    16.412971 
    -129.048    26.542388    14.579696    16.427861 
  -74.615348    26.544737    14.583848    16.439317 
   3.4448983    26.544101     14.58343     16.44713 
  -11.916362    26.543603      14.5804    16.454082 
   29.661874    26.542628    14.576372    16.462929 
   30.689685     26.54284    14.574575    16.474082 
   57.145003    26.544279    14.573789    16.487393 
    22.16257    26.548004    14.576299    16.502902 
  -16.903424    26.552616     14.58121    16.521967 
  -62.867929    26.556552    14.591711    16.543452 
  -102.38091    26.557973    14.606688    16.561594 
  -42.097031    26.555298    14.621448    16.573907 
  -72.300957     26.55094    14.635118    16.579477 
  -28.404838     26.54369    14.644386    16.578323 
   35.444732    26.535303    14.652066    16.573699 
   33.064228    26.528334    14.657496    16.571126 
  -11.515352    26.522688    14.663319    16.568236 
   52.289544    26.516581    14.672942    16.568816 
   31.157106    26.512566    14.686074    16.573547 
   92.679382    26.509797    14.701645    16.581457 
   9.1625983    26.510736    14.717597     16.59075 
   -85.49831     26.51204    14.731616    16.601024 
  -98.964309    26.509925    14.739281    16.608072 
  -20.538128    26.503852    14.737788    16.612876 
   69.332642    26.496956    14.731472    16.615144 
    4.059097    26.492834    14.725208     16.61723 
   70.731676    26.488875    14.719561    16.622509 
    24.82373    26.487744    14.716094    16.628709 
   128.42593    26.487607    14.715852    16.638763 
  -16.041413    26.492607    14.718969    16.648854 
   11.771361    26.496965    14.727582    16.661936 
   62.138068    26.501794    14.736372    16.676308 
  -87.077264    26.509108    14.744416    16.692225 
  -42.287665    26.512939     14.74959     16.70644 
   -31.80289    26.515079     14.75353    16.717937 
  -96.166455    26.515947    14.758805    16.728066 
   8.2694649    26.512968    14.763232    16.737258 
   -8.578176     26.51032    14.767945    16.747512 
 -0.15150401    26.507328     14.77114    16.754449 
   48.404463    26.504331    14.776341    16.764317 
   64.626182     26.50327    14.783956    16.774278 
   66.696713    26.504794    14.793004    16.783699 
   46.019532    26.508985    14.802182    16.793448 
   1.9103733    26.515018     14.80787    16.800257 
  -18.162934    26.521127     14.81239    16.805553 
   -13.49784    26.526509    14.815613    16.812455 
  -45.816602    26.531352    14.817549    16.820415 
  -19.094774    26.534361    14.824355    16.828691 
   22.998895    26.536607    14.835117    16.835816 
   33.921491    26.539773    14.848187     16.84473 
    96.33741    26.544296    14.862469     16.85599 
   37.153619    26.552673    14.874711    16.866553 
   9.4468458    26.562535    14.885924    16.875631 
  -18.334216    26.572775    14.897531    16.884384 
  -15.713019    26.582282    14.906184    16.892291 
  -39.680709    26.591161    14.911012    16.900254 
 -0.02631537    26.598452     14.91052    16.906165 
  -32.244555    26.605742    14.909065    16.913422 
  -26.972762    26.611743    14.908423    16.922835 
   21.621327    26.616664    14.909893    16.932529 
   73.555447     26.62245    14.914055    16.943103 
     47.0682    26.631179    14.919417    16.952234 
  -26.839694     26.64179    14.924721    16.957554 
  -25.992049    26.651328    14.932367    16.963709 
  -78.121128    26.659826    14.942825    16.967869 
  -41.500445    26.665199     14.95348    16.968627 
  -67.140793    26.668912    14.963325    16.967383 
  -13.960783     26.66994    14.971952    16.965654 
   69.975275    26.670409    14.979096    16.962493 
   93.606012    26.673677    14.986675    16.960687 
   64.721484    26.680689    14.995137    16.960977 
   93.638894    26.690291    15.005671    16.962694 
   16.107149    26.703637    15.017931    16.965851 
  -46.374548    26.717628    15.030757     16.97069 
  -76.497499    26.729765    15.045432    16.973516 
  -134.99658    26.738841    15.060161    16.974133 
  -75.289214    26.742517    15.073401    16.973027 
    43.16436    26.743182    15.085438    16.971242 
  -30.983817    26.745573     15.09673    16.969898 
   9.9895455    26.746725    15.107786    16.972811 
   51.613997    26.748276     15.11994    16.977671 
   120.91999    26.751893    15.132581    16.984717 
  -4.6962041    26.760345    15.142793    16.994457 
  -11.988808    26.768611    15.151993    17.002791 
   5.6208784    26.776396    15.160129     17.00865 
  -19.428708    26.784406    15.168199    17.011609 
   36.464801     26.79164    15.177163    17.013643 
   13.207084    26.800331    15.186849    17.016808 
    37.20669    26.809551    15.196026    17.021264 
   72.232653     26.82026     15.20728    17.026656 
   44.454873    26.833857    15.219033    17.034088 
   110.38093    26.849233    15.233022     17.04366 
   115.72673    26.869024    15.244319    17.052345 
   24.852199    26.893444    15.249465    17.060944 
  -24.297868    26.918859      15.2536    17.068511 
  -66.995806    26.943301     15.25701    17.075456 
  -36.191665    26.965063    15.260793    17.082012 
   20.390604    26.985378    15.265297    17.090484 
   42.754195    27.006509     15.27039    17.095915 
   36.225176    27.029349    15.274388     17.10307 
  -154.87125    27.053639      15.2798    17.113295 
  -422.41056    27.071733    15.286306    17.123668 
  -8.9134944    27.072932    15.292268    17.135155 
  -45.076297    27.073774    15.297216    17.144603 
   36.392586    27.072812    15.300066     17.15396 
   75.816996    27.073307    15.302972    17.165687 
   68.256571    27.076834    15.307625     17.18075 
   1.8504366    27.083091    15.313892    17.198459 
   52.449375    27.089423    15.317947     17.21675 
   9.4373724    27.097852    15.322006    17.231792 
   8.8917332    27.106659    15.325267    17.242723 
    20.13634    27.115821    15.328555    17.252497 
   10.786509    27.125789    15.332223    17.260986 
  -11.107134    27.136189    15.335525    17.269582 
   18.061602    27.146144    15.339875    17.278972 
   108.56764    27.156822    15.348269    17.290539 
   89.780554    27.171842    15.358183    17.302761 
   62.125385    27.190454     15.36561    17.317382 
   23.931381     27.21155    15.371279    17.334856 
   4.6647874    27.233604    15.377596    17.356034 
   56.955696    27.255844      15.3819    17.375942 
  -13.428979    27.280363    15.384151    17.388923 
  -116.48537    27.304345    15.385747    17.396771 
  -398.60751    27.323667    15.386184    17.404196 
   -164.1241    27.327044    15.388054    17.411962 
   -17.12772    27.323857    15.391636    17.423943 
   50.576526    27.319985      15.3957    17.438097 
   66.939577    27.318136    15.397737    17.454976 
   46.740663    27.318964    15.398722    17.473827 
   15.077397    27.321662      15.3991    17.491476 
  -32.876729    27.324963    15.399146    17.504728 
  -138.82428    27.326949    15.400526    17.515189 
  -7.5954999    27.323382    15.403226    17.524262 
   5.5113606    27.319511    15.406023    17.531939 
   80.633201    27.315861    15.405316    17.538417 
   112.07564    27.315436    15.401509     17.54081 
    162.0144    27.319494    15.396746     17.54411 
   124.49539    27.330033    15.393344    17.551738 
    79.93559    27.345551     15.38868      17.5601 
   22.017953    27.364267    15.385923    17.571798 
  -126.07839    27.383863    15.388004    17.584206 
  -45.279587    27.398417    15.395488    17.592036 
   49.001809    27.411159    15.403141    17.596043 
   150.16956    27.425861    15.412306    17.599743 
   167.18835    27.446571    15.420701    17.601782 
   112.14603    27.473967     15.42336    17.600029 
   54.394967     27.50585    15.421113    17.595601 
  -615.85746    27.539908    15.419363     17.59376 
  -689.43538    27.549332    15.417344    17.595244 
  -2.1345356    27.531178    15.414078    17.601166 
   88.407408     27.51294    15.413845    17.610297 
    54.44613    27.498237     15.41422    17.622736 
   78.575308    27.485712    15.415563     17.63033 
   5.0905654    27.476331    15.415551    17.635731 
   81.856115    27.467153    15.413297     17.63558 
   99.583428    27.461249    15.408809    17.632378 
   83.126554    27.459328    15.400178    17.628594 
   76.187114    27.460733    15.393003    17.625245 
   90.515108    27.465185    15.388993    17.626367 
   74.409628    27.473258    15.388378    17.630136 
   90.605523    27.484307    15.389727    17.632844 
   43.928404     27.49898    15.391859    17.636448 
   81.382006     27.51541    15.393816    17.640087 
   62.115817    27.535096    15.394433    17.643505 
   92.798456    27.557266    15.390923    17.647393 
   92.235709    27.583149    15.385018    17.650956 
   110.35285     27.61272    15.380066    17.656454 
   -57.57735    27.646706    15.374151    17.665005 
  -265.29287    27.678389     15.36871    17.676393 
  -194.11357     27.69946     15.36638    17.690215 
  -412.75641    27.712766    15.366477    17.705843 
  -161.77201    27.709563    15.370602     17.72189 
   26.211485    27.699888    15.376292    17.738679 
   90.540169    27.691262    15.380395    17.756825 
   86.255378    27.686257    15.382532    17.775237 
   135.10195    27.684703    15.382786    17.792888 
   118.73102    27.688552    15.382401    17.809684 
   59.676314    27.697151    15.381697    17.826548 
   41.706886    27.708137    15.379382    17.842054 
   113.45424    27.720792    15.376699    17.857018 
   109.75073    27.737984    15.375006    17.871906 
   22.151489    27.759566    15.374439    17.886673 
  -148.71198    27.782035     15.37672    17.904046 
  -196.71072    27.798555    15.377488    17.921963 
  -66.150957    27.807207    15.379325    17.938143 
  -260.19008    27.813212    15.382346    17.954996 
  -114.83676     27.80881    15.387335    17.973486 
   46.111968    27.799815    15.390391    17.993073 
   76.213758    27.792664    15.394056    18.012355 
   160.14061    27.788561    15.396171    18.031966 
   171.13595    27.790864    15.398348    18.051727 
   151.77705    27.800013    15.400672    18.071195 
   106.32541    27.815232    15.403416    18.088245 
  -144.16018    27.834705    15.403996    18.104055 
  -42.253858    27.848411    15.406255    18.119435 
   94.466596    27.860428    15.407566    18.134641 
  -71.431346    27.876222    15.410694     18.15202 
  -277.89179     27.88916    15.416534    18.169616 
  -41.808432    27.890982    15.421008    18.186361 
   72.702194    27.891131    15.422537    18.203982 
   99.301495    27.894189    15.424361    18.220347 
   62.343129    27.901219    15.425828    18.235477 
  -37.399433    27.910742    15.423772    18.245516 
  -150.93123    27.918769    15.422016    18.253966 
  -105.01565    27.920759      15.4204    18.261088 
  -4.7454653    27.918549    15.422652    18.268723 
   73.443328    27.916149    15.428763    18.281171 
    154.8108    27.916686    15.435798    18.296055 
   38.686357    27.923416    15.443843    18.309757 
   -116.1703    27.931693    15.448741    18.320997 
  -18.109207    27.935324      15.4514    18.329354 
   89.305478     27.93823    15.454217    18.337646 
   50.337733    27.944709    15.455779    18.346237 
  -95.380561      27.9532    15.459605    18.353111 
   -114.3643    27.957877    15.462454    18.359439 
  -16.537408    27.957979    15.468103    18.367014 
   123.60452     27.95742    15.475075    18.376472 
   88.317541    27.961805    15.481748    18.385866 
   144.98307    27.969722    15.488171     18.39361 
   25.244044    27.983439    15.495178    18.400185 
  -159.90325    27.998165    15.502745    18.408192 
  -59.630794    28.006496     15.51382    18.417203 
   43.284494    28.012441    15.524737    18.426701 
   76.366869    28.020118    15.533208    18.436768 
  -16.779525    28.030849    15.541146    18.446471 
   -117.1935    28.040909    15.550555    18.457065 
  -86.860177    28.046281    15.558773    18.468561 
   5.9209214    28.048179    15.562538    18.479838 
   106.44166    28.050314    15.563013    18.490831 
   59.159572    28.056706    15.561144    18.501546 
   40.216023    28.065465    15.560903    18.511695 
   -76.26865    28.075833    15.558611    18.521661 
  -61.884763    28.083149    15.555916    18.529887 
   -19.75253    28.087991    15.556256    18.535685 
   40.157529    28.092042    15.555607    18.539924 
   40.125486    28.097699    15.554962     18.54113 
   19.481844    28.104962    15.555236      18.5401 
  -73.939901    28.113004    15.553572    18.539093 
    39.87007    28.118088    15.551841    18.536928 
   145.54816    28.124767    15.552143    18.533364 
   30.624934    28.137268    15.554879     18.52887 
  -1.0999448    28.150994    15.560927    18.529119 
  -124.26089    28.164676      15.5687    18.528194 
   4.3676152    28.173387    15.575692    18.524533 
  -26.285618    28.182274    15.580559    18.517704 
  -614.03497    28.190108    15.583193    18.508886 
   62.739672    28.173382    15.584492    18.498928 
   17.719261    28.159165    15.584681    18.489955 
   60.538644    28.145657    15.584788    18.484055 
   57.307572     28.13457     15.58463    18.485595 
   51.718702    28.125775    15.585467    18.490391 
   50.048733     28.11905    15.587529    18.496907 
  -92.321741    28.114326    15.592153    18.501328 
   21.006622    28.105909    15.600547    18.500966 
   69.140645    28.098333    15.605507      18.4956 
   147.59759    28.093522    15.608606    18.491408 
   28.302498    28.094616    15.611342    18.489145 
  -1.2523725    28.096841    15.611859    18.491717 
   53.707325    28.099016    15.614427    18.497762 
   71.629551     28.10334    15.617755    18.507844 
   54.901618    28.110528    15.623831    18.519477 
  -47.089303    28.119913    15.632889       18.534 
  -96.002088    28.127414    15.644967    18.549657 
  -88.185448    28.131076    15.655563    18.560042 
   45.416279    28.131209    15.664305    18.564642 
   16.626906     28.13316    15.670798    18.563048 
  -11.544047    28.135775    15.677568    18.559579 
  -39.537835    28.137929    15.682256    18.558758 
   10.815803    28.138501    15.687643    18.560278 
  -4.0749548    28.139506    15.694314    18.566121 
   -27.57009    28.140347    15.702857     18.57336 
   28.638935    28.140086    15.711938    18.580306 
  -27.904411    28.140971    15.721445    18.585949 
   13.089985    28.140739    15.727851    18.586982 
   80.902514    28.141031    15.730925    18.581532 
   99.447076    28.144559    15.730723    18.570964 
   87.543263    28.152065    15.730346    18.558319 
   38.995993    28.163073    15.731355    18.546482 
  -56.357113     28.17564    15.735235    18.537668 
  -46.860332    28.185954    15.742887    18.530941 
  -71.765286    28.194392    15.752236    18.527942 
   14.249768    28.199961    15.761685    18.525413 
   25.686221    28.206099     15.77116    18.522952 
   40.226699    28.213264    15.775376    18.516722 
   29.250872    28.222039    15.776195    18.505734 
  0.27980596    28.231984    15.774733    18.490653 
  -27.301429     28.24194    15.771212    18.473734 
  -30.683479    28.250804    15.769148    18.459224 
  -79.077586     28.25844    15.770497    18.448552 
  -27.025747    28.262914    15.776325    18.441952 
   65.072159    28.266306    15.783751    18.440741 
   76.096086    28.272301    15.789753    18.442821 
   5.8697561     28.28134    15.794439    18.443455 
   94.080448    28.290614    15.795512    18.442278 
   26.293532    28.303652    15.793208    18.441945 
  -74.982314     28.31774    15.790642    18.442757 
   -71.19012     28.32883    15.788559     18.44172 
   74.928478    28.337072     15.78593    18.439478 
   5.6995447    28.348311    15.784076    18.438891 
  -47.825287    28.359778    15.783714    18.439219 
  -43.237439    28.369332    15.787748    18.440466 
   -54.43912    28.377157    15.791495    18.442464 
  -95.805503    28.382804    15.795303    18.443616 
   27.648484    28.384619    15.799181    18.447846 
   157.46633    28.387539     15.80101    18.451638 
   103.39238    28.396759    15.800278    18.457206 
   142.90776    28.410114    15.798308    18.462612 
   65.553887    28.429185    15.796309    18.469102 
   50.144942    28.450879    15.796731    18.477522 
   39.224654    28.474578    15.800426    18.489109 
  -75.920113    28.499847       15.808    18.500228 
    41.68478    28.522078    15.814872    18.509706 
   63.327938    28.545977    15.821703     18.51756 
   145.48073    28.572409     15.82382    18.522429 
   22.339602     28.60466    15.824777    18.526794 
   -541.4714    28.637805    15.824744    18.530957 
  -294.28681    28.649291    15.823528    18.535928 
   -429.0779    28.649006    15.823151    18.538063 
  -3.0420304    28.631557    15.825391    18.541049 
   40.202344    28.613987    15.829454    18.544835 
  -47.955121    28.598025    15.836308    18.548824 
   83.376196    28.580145    15.844542    18.552638 
   72.521836    28.565599    15.853353    18.554996 
   63.155072    28.553955    15.861611    18.557504 
   145.56609    28.544837    15.870921    18.560005 
    82.02054    28.541541    15.881392    18.562723 
   94.540109    28.541526    15.892771    18.563019 
   31.969494    28.545293    15.904612    18.562277 
  -63.209202    28.550339      15.9155    18.557995 
  -21.477921    28.552856    15.927284    18.553193 
   79.713366    28.554514    15.939101    18.548006 
   97.126378    28.559361    15.947694    18.541549 
   220.62635    28.568092    15.955594    18.536735 
   240.99456    28.585649    15.961976    18.532365 
   182.83549    28.612846     15.96896    18.528745 
   39.261117    28.647356    15.975801      18.5275 
  -373.37638    28.683436    15.984491    18.525526 
  -350.10575    28.704581    15.994343    18.522541 
  -409.18115    28.711722    16.001161    18.516275 
  -210.35261    28.702496    16.006928    18.507521 
   115.24477    28.684856    16.011475    18.495479 
    201.7015    28.671826    16.011443    18.484031 
   248.36193    28.666863    16.012758    18.475967 
   175.63106    28.671835    16.016169    18.471894 
  -47.809228    28.683833    16.018968    18.473231 
  -359.15068    28.693918    16.023498    18.474753 
  -28.214692    28.689637    16.029723    18.474746 
   5.8612624    28.684227    16.036298    18.474279 
    150.8476    28.679052    16.042718    18.470854 
   191.04103    28.679911     16.04896    18.463944 
  -52.261155    28.688411    16.056306    18.456678 
  -214.24949    28.694821    16.065535    18.446986 
   -203.6574    28.692661    16.075275    18.436974 
   34.674093    28.682354    16.083769    18.429335 
   75.642306    28.673435    16.092943    18.425001 
   63.268131    28.667541    16.103555    18.424777 
   41.888403    28.664178    16.115163    18.424338 
   55.500399    28.662491    16.124978    18.426405 
   126.24865    28.663023    16.132719     18.42887 
   217.58229    28.668606    16.137746    18.429747 
     187.235    28.682892    16.139724    18.427442 
   86.715441    28.704667    16.140768    18.422423 
  -250.25283    28.729911    16.140618    18.418552 
  -315.57474    28.745144    16.141118    18.417545 
  -588.97662    28.747755    16.139244    18.417306 
  -308.38914    28.726807    16.138244    18.418161 
  -26.866883    28.693523    16.137676    18.420531 
   195.40603    28.659164    16.138001    18.423987 
   224.35821    28.632622    16.138144     18.42821 
   269.01676    28.615054    16.139355    18.428544 
   264.17662    28.608247    16.142242    18.425165 
   239.21794    28.612006    16.144699    18.421431 
   132.17888    28.625335    16.146199    18.416797 
   99.731967     28.64395    16.147482    18.413752 
  -25.219854    28.666555    16.148373    18.411753 
  -175.42512    28.688151    16.150617    18.411581 
  -548.79801     28.70273    16.153113    18.412373 
  -309.45889    28.695358     16.15681    18.417349 
  -97.806153    28.675606    16.162337    18.421903 
   128.17553    28.651943    16.164774    18.424434 
   273.96182    28.633406    16.164405    18.425283 
   300.61101    28.625828    16.158912    18.427022 
   214.24791    28.630275    16.150118    18.429299 
   65.155948    28.643291    16.140518    18.431064 
   30.192752    28.658914    16.131601    18.433331 
  -2.5119477    28.675744    16.126868    18.440664 
  -14.036853    28.692474    16.124127    18.452721 
  -238.87794    28.708643    16.122716    18.469863 
  -358.91348    28.715256    16.125035     18.48953 
  -157.43903    28.707513    16.126364    18.507252 
   210.45784    28.693472    16.126019    18.518056 
   243.81965    28.687849    16.124723    18.522465 
   157.65346     28.69198    16.120872    18.523016 
   58.320755    28.702416    16.114392    18.525931 
  -65.936736    28.715185    16.109442     18.53217 
   -16.46494    28.725317    16.105953    18.541505 
  -6.6973813     28.73479    16.103869    18.553983 
  -92.157608    28.743995    16.103501    18.569862 
   -194.6254    28.749514    16.104097    18.586076 
   106.19162    28.747248    16.105484    18.599446 
   61.327724     28.74923    16.106085    18.605517 
   -90.51296    28.753665    16.105625    18.609314 
   43.003741    28.754479    16.103654    18.612028 
  -57.609524    28.757013    16.102317    18.614118 
   25.456711    28.757243    16.101055    18.619607 
   102.02857    28.758492    16.102093    18.626848 
   121.19871    28.763821    16.105869    18.636554 
   22.367869    28.773998    16.114317    18.650219 
  -178.64588     28.78507    16.125001    18.663137 
  -71.359402    28.788997    16.136351    18.674706 
   31.052566    28.790069    16.147872    18.682376 
  -134.57343    28.792382    16.154942    18.687687 
  -191.58282    28.789313    16.157774    18.688993 
   -3.174124    28.778581    16.157637    18.691582 
    66.99789    28.767722    16.156412     18.69597 
   68.945683    28.759543    16.155726     18.70293 
   111.12671    28.754121    16.156279    18.714947 
    85.72059    28.753145    16.158606    18.728272 
  -92.132289    28.755597    16.162234    18.741275 
  -37.151943    28.754364    16.165781    18.749539 
   88.381432    28.751645    16.170241    18.754235 
  -48.483617    28.752461    16.170356     18.75299 
  -40.139063    28.751338    16.169698    18.748731 
   -64.05981     28.74861    16.169679    18.748528 
   46.993738    28.743319     16.17177    18.751957 
     173.556    28.739907     16.17388    18.757261 
   94.946195    28.743438     16.17722    18.765721 
   4.2618136    28.750767     16.18004    18.774258 
  -91.094402    28.758266    16.180019    18.780347 
  -81.614729    28.762122     16.17756    18.785801 
  -208.81301    28.762713    16.172515    18.788863 
  -199.54355    28.754951    16.166508    18.790337 
   -90.37978    28.739208    16.159313     18.78901 
  -5.0895611    28.719849    16.153578    18.785317 
   143.74544    28.700287     16.14661    18.781087 
   133.16538    28.686475    16.139687    18.776262 
   86.480204    28.677989    16.132157    18.770184 
   25.496859    28.672963    16.122631    18.766164 
   43.683966    28.668956    16.111292    18.762015 
  -37.294226    28.666697    16.099161    18.760228 
   5.0450906    28.662946    16.088547    18.758316 
  -52.956348    28.659396    16.078144    18.754343 
    52.71198    28.653729    16.069319    18.750523 
   45.937305     28.65017    16.064303    18.748217 
   131.54883    28.648448    16.060389    18.745953 
   188.32364    28.651989    16.055129    18.743152 
   61.948709    28.663062     16.04851    18.740356 
  -93.788732    28.676614    16.041259    18.737775 
  -87.820011    28.686413     16.03264    18.733623 
  -132.99067      28.6927    16.027291    18.729434 
   26.183353    28.693668    16.022686    18.724357 
  -1.3475843    28.695683    16.015319    18.717792 
   36.381557    28.697643    16.006992    18.710821 
   15.045216    28.701059    15.999894     18.70658 
    65.74284    28.705077    15.995056    18.705527 
   35.450633    28.711725    15.991705    18.704504 
  -67.015606     28.71979    15.987784    18.705095 
  -61.544108    28.725175    15.984736    18.704693 
  -93.617048    28.728099    15.980128    18.703798 
   26.573263    28.727277    15.973918    18.703414 
   53.675473    28.727519    15.965901    18.699811 
  -22.011298    28.729907    15.956987    18.696515 
  -4.3240611    28.731415    15.949277    18.694427 
   66.681298     28.73275    15.944002    18.691964 
   51.110284    28.736753    15.943091    18.692896 
  -27.334653    28.742799    15.942699    18.694233 
  -81.448243    28.747753    15.940395    18.691507 
    -44.2448    28.749448    15.939869    18.688497 
   49.205105    28.749374    15.939957    18.689007 
   -82.41649    28.751268    15.942999    18.689729 
   24.486076    28.749865    15.947133    18.691871 
   86.904065    28.749441    15.951223    18.696945 
    91.19709    28.752494    15.956926    18.704177 
   108.07432    28.759195    15.961315    18.713237 
  -67.589877    28.770218    15.966768    18.721989 
  -150.20662    28.778538    15.975695    18.730364 
  -139.92029     28.78085     15.98533    18.734899 
  -36.524773    28.777565     15.99496    18.738047 
  -12.818286    28.772819    16.003658    18.740702 
  -41.880669     28.76756    16.011986    18.745532 
   37.529043    28.760626    16.020094    18.749969 
   68.747395    28.755194    16.027228    18.755528 
   85.354255    28.752511    16.034581    18.762449 
   25.306207    28.753242    16.042231    18.773744 
  -81.879054    28.754985    16.051575    18.786446 
  -36.950665    28.753454    16.062547     18.80099 
   -39.36187    28.750444    16.071085     18.81547 
  -27.439823     28.74586    16.076097    18.827695 
   12.288294    28.740178    16.079259    18.837527 
   37.313127    28.734988    16.080161    18.845342 
   11.582351     28.73129    16.080225    18.854715 
   21.875193    28.728056    16.082297    18.866444 
   43.582128    28.725696    16.087089    18.880354 
   43.358399     28.72508    16.093417    18.899616 
   62.689195    28.726198    16.101094    18.920712 
 -0.24923345    28.729824    16.107387    18.940157 
   46.899833     28.73344    16.108971    18.954231 
  -48.117565    28.738932    16.108283    18.965089 
  -3.7950056    28.742499     16.10705    18.971128 
  -1.0463376    28.745914    16.106171    18.977173 
  -2.9947688    28.749288    16.108141    18.983411 
  -9.5228491    28.752541     16.11259    18.989396 
  -21.911709    28.755414    16.119613     18.99746 
   24.432428     28.75741    16.128982    19.006847 
  -9.8353587    28.760384    16.139952    19.015319 
 -0.55106689    28.762964    16.151403    19.020799 
  -35.756589    28.765522    16.158891    19.024272 
  -140.48029     28.76665    16.165608    19.027506 
  -60.247419    28.762159    16.172914     19.03287 
   61.086243    28.755257    16.180712    19.043332 
   61.630291      28.7508    16.190668    19.056043 
   49.964057    28.748807    16.201719    19.067232 
  -25.290153    28.748813    16.209367    19.076323 
   25.951654    28.747807    16.214427    19.082917 
   13.228591     28.74784    16.218887    19.090611 
  -19.472014    28.748401    16.220728    19.097177 
  -112.52754    28.748184    16.221499    19.102284 
  -13.824907    28.743466    16.223211    19.107807 
   19.188911    28.738194    16.227261    19.114788 
   -51.24928     28.73369    16.233882    19.125212 
   17.573283    28.727137    16.243064    19.136019 
   29.122763    28.721286     16.25313    19.145497 
   53.747217      28.7166     16.25988    19.153434 
   107.62156    28.714064    16.263936    19.159145 
   49.090208    28.715832    16.267399    19.163068 
  -71.463314    28.719565    16.268812    19.167381 
  -58.515225    28.720439    16.269802    19.173384 
  -95.624265    28.718972    16.272828    19.179584 
   50.962463     28.71368    16.276748    19.186233 
  -25.327268    28.710427     16.28115    19.195704 
   45.967886    28.706161    16.287238    19.208004 
  -62.451115    28.703733    16.291629    19.221572 
   14.045325    28.698807      16.2932    19.234557 
   88.592115    28.694443    16.288779    19.245446 
  -69.865423    28.693623    16.283588    19.253689 
   -18.20207    28.690008    16.278089    19.261856 
  -98.508624    28.685666    16.271348    19.271074 
  -12.795039    28.677382    16.266424    19.277663 
  -66.339369    28.668587     16.26628    19.287868 
  -5.3853187    28.657139     16.26825    19.297855 
   81.798045    28.645475     16.27084     19.30649 
   47.685624    28.637083     16.27067      19.3139 
   83.109288    28.630598    16.267189    19.319314 
   114.19378    28.627438    16.261393    19.322191 
   184.30916    28.628845    16.253742    19.323169 
    66.24056    28.637625    16.250332    19.323211 
   40.449453    28.649055    16.250446    19.323855 
  -85.850251    28.662102    16.248317    19.323156 
  -90.868475    28.671716    16.247121    19.322521 
  -73.254813    28.677694     16.24784    19.322443 
  -19.748931    28.680743    16.250614    19.323035 
    69.66279    28.683001    16.252425    19.323497 
   106.44098    28.688046    16.253198    19.322113 
   54.457696    28.697349    16.253569    19.319927 
   66.562703     28.70883    16.247461    19.315735 
     32.3312    28.722974     16.24038    19.314533 
  -29.576055     28.73841    16.231692    19.314358 
  -122.21828    28.752664    16.225805    19.316754 
  -242.44409    28.762029    16.219467    19.319459 
  -133.78019    28.761696    16.211936    19.321988 
    15.03577    28.756012    16.204053     19.32218 
   80.646195     28.75093    16.194246    19.321757 
   178.82391    28.749073    16.182527    19.324523 
   144.05234    28.754369    16.171131     19.32937 
   37.076838    28.765428    16.160559    19.333613 
   34.733295    28.777969    16.151691    19.336176 
  -221.64371      28.7919    16.140603    19.336547 
  -199.81817    28.796965    16.131371    19.335963 
  -102.28265    28.794037    16.122906    19.334734 
  -51.030802    28.787018    16.112667    19.333053 
   100.52822    28.777958    16.102811    19.330348 
   75.889175    28.772919    16.093512    19.327634 
   123.51723    28.770915    16.088899     19.32599 
   114.54477    28.773852    16.085785     19.32553 
   68.786393    28.781371    16.085725    19.327875 
  -27.942716    28.791641    16.087652    19.330069 
  -112.62208    28.800794    16.090938    19.329264 
   -114.7261    28.805442    16.095121    19.324583 
  -51.410039    28.805501    16.098027     19.31869 
  -97.215753    28.803503    16.099388    19.310482 
   69.116934    28.797617    16.101234    19.302405 
   80.072003    28.794495      16.1042    19.294425 
   70.797837    28.794576    16.108122     19.28694 
   68.791282     28.79749    16.113181    19.281345 
    55.86697    28.803154    16.120476    19.278082 
  -31.148241    28.811054    16.127112    19.274373 
  -119.47695    28.817707    16.130367    19.271526 
  -125.53509    28.819582     16.12816    19.265269 
  -48.808338    28.816435    16.122774    19.259292 
   32.637876    28.811336    16.117153    19.254362 
   59.301193    28.807542    16.109869    19.249675 
   193.08515     28.80612    16.101068    19.245321 
   48.206229    28.812422    16.095304    19.241101 
   -2.099971    28.820652     16.09254    19.236296 
  -75.764041    28.828798    16.090769    19.230641 
  -93.721803    28.833913    16.086278    19.222897 
  -89.901253     28.83528    16.079868    19.214893 
  -55.209057     28.83305    16.070704    19.205692 
  -92.144097    28.828613    16.060237    19.197205 
   32.783124    28.820489    16.048922    19.189094 
   91.485768    28.813677    16.038542    19.181993 
   69.966473    28.810524    16.030872    19.175643 
  -14.292898     28.81017    16.024761    19.171312 
   10.553252    28.809244    16.020629    19.168395 
  -52.606384     28.80874    16.015826    19.166963 
  -95.278238    28.806132    16.012082      19.1665 
  -67.540876    28.799713    16.008458    19.165881 
   4.6772948    28.790592    16.006971    19.165888 
   49.603308    28.781658     16.00253    19.163472 
   139.64182    28.774708    15.994238    19.161177 
   84.947678    28.773345    15.986061    19.157434 
   30.563581    28.775379    15.978197    19.154745 
  -86.450894    28.778635    15.972429    19.155611 
  -59.494853    28.778434    15.969892    19.160734 
  -71.429848    28.775852    15.968594    19.163617 
  -156.03581    28.770414    15.970375    19.167956 
  -16.876006    28.758734    15.974019    19.172172 
   44.164716    28.746379    15.977728    19.173272 
   17.856472     28.73579    15.981603    19.172655 
    91.07807    28.725916    15.984282    19.169904 
   60.326654    28.719685    15.985845    19.164568 
   22.584426    28.715867    15.985882    19.161479 
  -5.8569395    28.712953     15.98677    19.162748 
   25.579385    28.709804    15.987755    19.166699 
   6.1772266    28.707678    15.991305    19.171008 
  -16.384811      28.7058    15.995867    19.173476 
  -29.004557    28.703266    15.999746    19.172674 
   42.368981    28.699572    16.002986    19.168233 
  -34.484137    28.697572    16.002105    19.161361 
   -85.61197    28.694193    16.000754    19.151345 
  -54.447921     28.68739    15.998622    19.139636 
   132.80075    28.678409    15.996989    19.130964 
  -18.473294     28.67474    15.999899    19.125631 
   29.410315    28.670332    16.007363    19.125272 
   99.211817      28.6671    16.020483     19.12892 
   122.37517    28.667837    16.033165    19.134435 
   42.504918    28.673469    16.046072    19.138744 
  -14.939351    28.680801    16.052558    19.136825 
  -42.418605    28.687535    16.055767    19.128077 
  -11.897572    28.692573    16.058431    19.117817 
  -26.935706    28.697135    16.062091    19.109889 
  -19.046297    28.700619    16.068137    19.105377 
  -38.986612    28.703342    16.075272    19.106672 
     17.1767    28.704505    16.086727    19.111592 
   95.090673    28.706355    16.097752    19.118071 
   67.878337    28.712009    16.107261    19.123275 
   70.698244    28.720378    16.113322    19.123263 
  -59.547482    28.731575    16.111878    19.117252 
  -189.96267     28.74039    16.106618    19.106402 
   -111.6654    28.741606    16.099344    19.094729 
    10.52415    28.738356    16.092447     19.08587 
   66.838282    28.735527     16.08932    19.082436 
   41.943843    28.735371    16.088665     19.08252 
   23.938695    28.736893    16.091333    19.088232 
   23.232314    28.739373    16.095772    19.097342 
    9.311592    28.742781    16.096225    19.103505 
  -59.789165    28.746563    16.088672    19.104733 
  -90.241949    28.747953    16.074568    19.101858 
   24.432215    28.745733    16.059111    19.093893 
   48.186954     28.74449    16.047116    19.087014 
  -14.309973    28.745175    16.036923     19.08287 
   69.335298    28.745287    16.032606    19.079691 
   51.008213    28.748173    16.033622    19.078332 
   39.456853      28.7531     16.03832    19.079087 
  -93.616572    28.759604    16.044301    19.080313 
  -161.69753    28.762364    16.047173    19.080019 
  -65.457334    28.758656     16.04372    19.075655 
   30.143012     28.75233    16.036163    19.069184 
 -0.23323229    28.747209    16.026192    19.061454 
    59.22584    28.742079    16.016282    19.054743 
  -2.9214261    28.739318    16.008536    19.048885 
  -18.297561     28.73644    16.005225    19.045301 
  0.60381566    28.732831    16.005665    19.044776 
  -34.284034    28.729245    16.007135     19.04696 
   4.7503428    28.724288    16.009679    19.050668 
  -21.205631    28.719521    16.011843     19.05454 
  -109.89266    28.713906     16.01104    19.056645 
  -34.785629    28.703895    16.007513    19.055122 
   12.673062    28.692493    16.004282    19.052546 
   116.57502    28.681598    16.000176     19.04806 
   65.350792    28.675365    15.999441    19.047445 
   43.755341    28.671747    15.998837    19.048374 
   108.95548    28.669879    16.000891    19.052402 
   65.738984    28.672369    16.003582     19.06048 
  -22.724208    28.677489    16.007191    19.068348 
  -42.680894      28.6817    16.008149    19.072885 
  -29.566566    28.684203    16.003867    19.070123 
  -17.877199    28.685524    15.995638    19.063031 
   61.371701     28.68613    15.986143    19.056642 
   76.828303     28.68919    15.978302    19.050769 
   67.721088    28.695324    15.972816    19.047807 
   44.703807    28.704167    15.969465    19.045667 
  -74.347201    28.714797    15.967038    19.044304 
  -115.73053    28.722454    15.966481    19.043166 
  -76.635154    28.725482     15.96452    19.040429 
  -115.38502    28.725444    15.959559    19.036675 
  -115.69348    28.720791     15.95386    19.031983 
   15.928781     28.71151    15.945849    19.025122 
   84.777671    28.702866    15.935357     19.01727 
   116.99253    28.697614    15.922723    19.009657 
   43.203466    28.697041      15.9152    19.007103 
   38.554257    28.698196    15.909521    19.007399 
   50.393955    28.700893    15.906298    19.013578 
  -77.161292    28.705606     15.90312    19.021164 
  -168.08125    28.707233    15.896637    19.026118 
  -195.38146    28.702136    15.890331    19.027533 
  -46.301857    28.689225    15.882617    19.024824 
   90.471918    28.674461     15.87234    19.017395 
   167.15839    28.663316    15.863709    19.008895 
   165.18518    28.658857    15.855561    19.001821 
   163.63743    28.661006    15.851209    18.998334 
   111.30155      28.6697     15.84961    18.996289 
   3.1390294    28.682846    15.850072    18.997394 
  -68.960423    28.696118    15.851152    18.996542 
  -235.96553    28.706631    15.855615    18.991943 
  -175.76157    28.707706    15.862007    18.984994 
   71.690265     28.70175    15.868358    18.977926 
   136.44065    28.698662    15.870168       18.968 
   90.051689    28.701032    15.871211    18.956871 
   18.359568    28.707004    15.872138    18.948218 
     11.2604     28.71371     15.87387    18.940844 
   54.224887    28.720866     15.87692    18.936905 
  -22.359976    28.730191    15.879972     18.93753 
  -63.129785    28.738622    15.884908    18.938857 
  -29.270178    28.744528    15.889623    18.940728 
  -86.606906    28.749263    15.893373    18.943526 
   43.150528    28.750534    15.897185     18.94431 
   27.322336    28.753531    15.899619    18.942978 
   3.6187971     28.75762    15.901518    18.939786 
  -14.023186    28.761855    15.904955     18.93454 
  -53.829539    28.765528    15.910306    18.928164 
  -22.696735    28.767049    15.916049    18.920365 
  -13.771462    28.767661    15.921681    18.913248 
  -7.9326162    28.767723    15.929573    18.907644 
  -79.844155    28.767467       15.938    18.899882 
  -36.835179    28.764017    15.948022    18.890376 
   90.451709    28.759094    15.958108    18.881258 
   26.899776     28.75779    15.965644    18.872347 
  -30.715264    28.757561    15.970218    18.862421 
    45.04984    28.756103    15.975533    18.855011 
  -16.479636    28.756448    15.979493     18.84738 
  -17.608906    28.756133    15.980171    18.837621 
  -36.561862    28.755114    15.979366    18.826033 
  -80.718685    28.752633    15.974917      18.8163 
   11.222245    28.746923    15.967265    18.808562 
  -43.983655    28.741661    15.957995    18.800917 
  -1.5932702    28.734641    15.950244    18.794837 
  -81.777146    28.727556    15.943481     18.78949 
  -3.1971103    28.717201    15.934456     18.78165 
   18.575165    28.706717    15.926109    18.774347 
   60.240356    28.696977    15.919125    18.766136 
  -2.7525187    28.689646    15.912282    18.758887 
   34.980039    28.682205    15.905922    18.752552 
   44.885505    28.676164    15.901588    18.750394 
   4.0510931    28.671917    15.896011    18.747485 
  -44.145258    28.667833     15.89261    18.747823 
  -13.544877    28.661983    15.889181    18.750899 
   65.734622    28.655591     15.88836    18.758447 
   135.01395    28.651829    15.884866    18.768842 
   104.78368    28.653467    15.882304    18.779728 
   82.640675    28.659297    15.879927    18.790692 
   12.978008    28.668432    15.877222    18.800438 
  -12.858279    28.678086    15.875471    18.809851 
  -31.294695    28.687226    15.873852    18.817906 
  -129.01141    28.695114    15.870188    18.822069 
  -126.21457    28.697842    15.867926    18.826321 
  -71.168618    28.695521    15.866014    18.833796 
  -23.035342    28.690353    15.863029    18.843052 
   67.420005    28.684264    15.861133    18.850119 
   105.47895    28.680872    15.860511    18.854417 
    27.81549    28.681698     15.86262    18.858381 
  -20.096133    28.683638    15.867649    18.862831 
  -74.799322    28.684774    15.875164    18.866979 
  -52.070126    28.682917    15.879603    18.868121 
  -112.23047    28.678978    15.882486    18.867342 
  -38.941719     28.67055     15.88321    18.863437 
   20.899735    28.660564    15.884398    18.860444 
   129.19209    28.651414    15.886735    18.857702 
   216.42051    28.647431    15.891859    18.854269 
   125.77972    28.652106     15.89875    18.851774 
   48.585312    28.661812    15.910871    18.851346 
  -70.905474    28.673461    15.923185    18.853129 
  -137.28989    28.682274    15.933051     18.85344 
  -5.7129284    28.685595     15.93809    18.850305 
  -44.609778    28.688688    15.938831    18.848544 
   52.886606    28.689996    15.938264    18.844429 
   139.36797     28.69342    15.938737    18.841951 
   121.98289    28.702418    15.939257    18.840257 
   175.10021    28.716296    15.939038    18.841078 
  -60.608788    28.737178    15.941015     18.84339 
  -105.19676    28.755636    15.945037    18.847336 
  -252.75827    28.769885    15.948134    18.852252 
  -213.81522    28.774024     15.94899    18.859359 
  -210.42989    28.769611    15.945008    18.863686 
   30.889614    28.756781    15.938305    18.867013 
   5.3688041    28.745186    15.931365    18.871271 
   128.16423    28.733806    15.925237    18.873794 
   105.56691    28.727552    15.922759    18.876032 
   44.323025    28.725521    15.921384    18.876216 
  -1.6849378    28.725263    15.919367    18.875963 
   -55.11949    28.724938    15.917374    18.873483 
  -87.325131    28.722408    15.914223    18.869291 
   6.1596901    28.716384     15.90903    18.864302 
   9.6114782    28.710608    15.901359    18.860364 
   46.705508    28.705215    15.892487    18.856438 
   136.98979    28.701691    15.884073    18.853611 
   167.54499    28.703647     15.87849    18.851135 
   147.17746    28.712304    15.874211    18.849382 
  -34.885693    28.726848    15.873457    18.849964 
  -140.76049    28.739997    15.873208    18.847284 
   -172.6233    28.747516    15.875968    18.843023 
  -155.76943    28.748129    15.880329    18.840026 
  -87.930728    28.742512    15.883659    18.841386 
  0.46493094    28.733378    15.886777    18.842854 
   79.127906    28.724262    15.889363     18.84287 
   172.52756    28.718311      15.8911    18.844145 
    110.0837    28.719262    15.892575    18.842918 
   10.159608    28.724616    15.893515    18.842663 
  -111.12847    28.730376    15.895982    18.840314 
  -112.84346    28.731691    15.900209    18.838959 
  -132.33851    28.728492    15.904841    18.837615 
  -57.198425        28.72    15.907595    18.839765 
   34.142773     28.70922    15.910308     18.84373 
    114.5019    28.699805    15.911561    18.849344 
   113.75995    28.694971    15.908978    18.853583 
   86.911902    28.694687    15.904861    18.857494 
   57.679025    28.697879    15.900493    18.862986 
 -0.43259329    28.703379    15.894482    18.865739 
  -32.136932    28.708861    15.889992    18.866386 
  -85.986934    28.713058    15.887371    18.868625 
  -1.1887449    28.713815    15.886489    18.872569 
    22.51365    28.714525    15.885884    18.876183 
   60.758444    28.716135    15.886833    18.877329 
   151.13256    28.720176    15.886074    18.876579 
   35.941874    28.730262    15.884736    18.874393 
   18.670539    28.741786    15.885201    18.871617 
  -88.828888    28.754056    15.888925    18.867455 
  -146.56019    28.762773    15.895161    18.865734 
   -78.17222    28.765628    15.902183    18.866134 
  -24.133522    28.765356    15.909729    18.867222 
  -70.743027    28.764119    15.916326    18.869348 
   67.240792    28.760052    15.921268    18.874271 
   104.62389    28.758675    15.924617    18.878136 
   104.97778    28.761482    15.926995    18.881781 
   103.21148    28.768489     15.92891    18.883188 
  -65.447997    28.779624    15.931684    18.880355 
  -150.33127    28.788141    15.936296    18.877232 
  -185.25154    28.790645    15.944335    18.872865 
  -103.46632    28.785739     15.95386    18.867543 
   28.859997    28.776694    15.964523    18.864018 
   90.262724    28.768804    15.975804    18.858309 
   31.027286    28.764524    15.983719    18.854447 
   100.66267    28.761485    15.989643    18.850002 
   118.24506    28.762473    15.991214    18.844002 
   37.848899    28.768191    15.991522    18.836681 
  -36.221288    28.775422    15.993491     18.82993 
  -181.02723    28.781205    15.999084    18.823808 
  -170.35429    28.779747    16.005277    18.820338 
   24.436228    28.771474    16.012775    18.819181 
   136.36434    28.764179    16.021685    18.818476 
   111.52958    28.762338    16.030336    18.817645 
   69.958142    28.764959    16.037189    18.815965 
   104.55354    28.770378     16.03909    18.816535 
   30.747583    28.779979    16.035294    18.816508 
  -4.5505984     28.79081    16.031126     18.81597 
  -152.91998    28.801459    16.028677    18.813326 
  -237.36023    28.805991    16.028214    18.810936 
  -161.91249    28.801029    16.030742    18.810273 
  -23.250519     28.78959    16.039153    18.810471 
   20.725445    28.777221    16.049237     18.81085 
   25.767537    28.765681    16.057384    18.809582 
   122.58475    28.755172    16.064885    18.807997 
   56.146369    28.749567    16.068893    18.804082 
   116.40739    28.746207    16.067631    18.796453 
   97.853395    28.747503    16.065317      18.7864 
  -62.800115    28.752714    16.064396    18.774582 
  -132.09607    28.755413    16.066241    18.763633 
  -176.14721    28.752827     16.07327    18.757062 
   22.022019    28.743196    16.086448    18.753062 
  -9.2541085    28.734446    16.103959    18.750595 
   47.881967    28.725326    16.119519    18.747549 
   86.389753     28.71812    16.134044    18.743916 
   111.52233    28.714371     16.14693    18.741954 
   160.46786    28.715082     16.15433     18.73975 
   38.287696    28.722212    16.155461    18.732707 
  -10.367191    28.730874    16.153532    18.725243 
  -14.149087    28.739121    16.152604    18.721424 
  -181.35021    28.746802    16.154385    18.719081 
  -100.96659    28.747229    16.158975    18.719488 
    -38.5449    28.743617    16.163523    18.722794 
   59.557611    28.738463    16.168206    18.726895 
  -25.152834    28.735692    16.168845    18.731438 
   67.856631    28.731915    16.167415    18.735818 
   115.96829    28.730852    16.162571    18.735954 
   83.877599    28.734427    16.156511    18.737825 
  -27.024486    28.741358    16.147464    18.744932 
  -92.872331    28.747208     16.13651    18.757623 
  -175.40974    28.749343    16.130273    18.773706 
   -125.3743    28.744461    16.127231    18.791904 
   26.861237    28.734565    16.126296    18.812326 
   48.076919    28.725743    16.123613     18.83175 
    207.3418    28.718844    16.119108    18.844633 
   115.52605    28.720239    16.117096    18.849292 
   94.078442    28.726254    16.116358    18.849993 
   2.8304316    28.736033    16.116718    18.848864 
  -71.323143    28.745925    16.118181    18.848695 
  -164.05887    28.752965    16.118073    18.848525 
  -39.186099    28.753441    16.118909    18.850629 
  -23.202635    28.752351    16.122028     18.85192 
   24.170184    28.750332    16.125569    18.851628 
   57.388653     28.74928     16.12729    18.848988 
   46.768373    28.750524    16.122811     18.83956 
  -10.378199    28.753638    16.117836    18.825119 
  -53.439187    28.756338    16.111659    18.808772 
  -61.737122    28.756899    16.109017    18.795334 
  -20.841185    28.754991    16.107476    18.784092 
   61.202374     28.75225    16.105282    18.778368 
   18.156996    28.751957    16.103247    18.778368 
  -13.858654     28.75239    16.103663    18.780744 
  -54.746394    28.752268    16.104266    18.784942 
  -108.21073    28.749957     16.10007    18.787475 
  -56.097273    28.743317    16.087272    18.785375 
  -12.163847    28.734434    16.071791    18.778528 
  -3.5911502    28.725063    16.059564    18.775001 
   31.236182     28.71555     16.05033    18.774223 
   111.40636    28.707285    16.043325     18.77614 
    141.8855    28.703477    16.035858    18.781022 
   128.66874    28.705344    16.029434    18.788179 
   11.166955    28.712359    16.025017    18.793948 
   -79.05923    28.719819    16.018274     18.79514 
  -129.72358    28.724118    16.007966     18.79061 
  -51.920117    28.723227    15.995037    18.781639 
  -9.1335088     28.72026    15.986039    18.773233 
 -0.69106813    28.716927    15.979229    18.765442 
   84.711751    28.713567     15.97719    18.759412 
   90.914491    28.713595    15.978317    18.756677 
   74.048259     28.71726    15.985374    18.756811 
   42.253811    28.723886    15.992966    18.757617 
  -35.170917    28.732203    15.997706     18.75555 
  -89.019137    28.739113    15.996836    18.746061 
  -126.44512    28.742462    15.989721    18.732515 
  -18.723305    28.740753    15.983094    18.721565 
  -2.4375636    28.738296    15.978555    18.715004 
   27.759185    28.735741     15.97609    18.711552 
   60.114178    28.734296    15.975017     18.71223 
   85.161452    28.735256    15.977858    18.716962 
   88.498222    28.739622    15.983405    18.724186 
   -79.34417    28.747529    15.990169    18.731282 
  -109.10498    28.752261    15.996391    18.736977 
  -112.95691    28.752629    16.000905     18.73744 
  -149.08863    28.748479    16.001862      18.7359 
  -33.525207    28.738366    16.001353    18.732851 
  -21.195604    28.726911    16.001468    18.730655 
   45.017809    28.714609    16.000623    18.728885 
   69.514158    28.704107    16.001067    18.729471 
   101.28395    28.696386    16.000022      18.7327 
   106.38631    28.692717    16.000669    18.736082 
    13.65856    28.693302    16.003461     18.74123 
  -30.750215    28.694434    16.005517    18.745177 
   6.7715211    28.694336    16.005461    18.745276 
  -74.168435    28.694509    16.000526    18.742058 
  -101.96229    28.691716    15.992175    18.737438 
   -28.38753    28.684843    15.983672    18.735662 
    25.91676    28.676836    15.975061    18.735585 
   109.38938    28.669864    15.968531    18.736682 
   129.88619    28.667269    15.963425    18.738258 
    15.62576    28.669869    15.957596    18.741885 
   76.665441    28.673094    15.951656    18.744725 
    101.2654    28.679385     15.94552    18.744736 
   106.44297    28.689727    15.937426    18.742317 
   -95.38509    28.704327    15.928123    18.735668 
  -290.44282    28.715112    15.920991    18.732347 
   -107.1638    28.714278    15.915412    18.734047 
   16.357288    28.709159    15.912896     18.73747 
   88.899339    28.704693    15.913779     18.74234 
   131.15422    28.703784     15.91564    18.748405 
   115.54001     28.70812     15.91573    18.755064 
   51.908013    28.717078    15.915679    18.760171 
   31.618835    28.728113    15.914852    18.761578 
  -63.218296    28.740412    15.910411    18.756297 
  -106.46667    28.750183    15.903258    18.746717 
  -189.01344    28.755695    15.898531    18.738003 
  -167.84759    28.753646    15.894739    18.731812 
    62.98671    28.744884    15.894482    18.729266 
   115.49851    28.738641    15.894688    18.727636 
   160.93657    28.737018    15.894362    18.727985 
   81.334979    28.741832      15.8928    18.724401 
  -42.202622      28.7499    15.890367    18.717031 
  -67.800178    28.756279    15.885944    18.707962 
  -144.41043    28.759947    15.880751    18.694844 
  -134.82765    28.757838    15.873395    18.681387 
  -121.92299    28.750336    15.868677     18.67114 
   50.387877    28.737957    15.866133    18.662487 
   100.22935    28.727594    15.866542    18.657653 
   167.77207     28.72124    15.866438      18.6534 
   82.206729    28.721597    15.866182    18.652184 
   31.975423    28.725242    15.866255    18.651991 
   34.733833    28.730166    15.865946    18.647747 
  -83.089866    28.736479    15.862165    18.644795 
  -133.30828    28.739469    15.856902    18.640658 
  -83.914378    28.737127    15.850604    18.638577 
  -68.535606    28.731427    15.846194    18.639449 
  -14.017287    28.722987    15.844252    18.644191 
   103.14077    28.713986    15.844197    18.651363 
   82.810994     28.70911    15.846407    18.659383 
   92.727243    28.707547     15.84621    18.668371 
   27.157214    28.709693    15.843156    18.675425 
  -51.615927    28.712925    15.835501    18.677456 
  -120.16964    28.714093    15.826369    18.677129 
  -31.099241    28.710454    15.820013    18.676895 
  -19.707826     28.70557    15.815765    18.677403 
  -43.520681    28.699899    15.813026    18.679557 
  -58.962367    28.692487    15.812067    18.682774 
   70.068228    28.682716    15.813636    18.688795 
  -1.4364299    28.675748    15.815803    18.695799 
   22.881957    28.668722    15.817028    18.700554 
  -54.039783    28.662612    15.816212    18.703522 
  -60.615013     28.65434    15.811495    18.701922 
  -17.356643    28.643644    15.805317     18.69976 
  -28.559208    28.632253    15.800914    18.699357 
  -26.825208     28.61972    15.800759    18.699898 
   62.586532    28.606114    15.807347     18.70209 
   82.686816    28.595011    15.817261    18.709737 
   134.04084    28.587216    15.831005    18.718029 
   76.395027    28.584783    15.845925    18.723905 
   63.458925    28.585405    15.859016    18.726169 
  -61.408011    28.588566    15.869275    18.725014 
  -4.7853364     28.58927    15.876069    18.720929 
   49.298013    28.589783    15.883563    18.717172 
   99.151725    28.592268    15.889714    18.716184 
   31.190036    28.598719    15.897317    18.718322 
  -86.690133    28.606417    15.906843    18.723185 
   1.0189915    28.610648    15.916884    18.729924 
   35.931059     28.61492     15.92465    18.734137 
   72.958861    28.620628    15.930198     18.73692 
   44.612905    28.629256    15.934708    18.739283 
  -25.001017    28.639668    15.939643    18.740244 
  -61.783425    28.649079    15.946936    18.742376 
   38.881066     28.65602    15.953885    18.748019 
  -96.425938    28.664515    15.961884    18.756408 
  -58.648968    28.669154    15.970906    18.765872 
  -106.52184    28.671447     15.98007    18.775256 
  -90.450265    28.669478    15.987008     18.78092 
  -10.947682    28.663892    15.990223    18.781842 
   6.7459086    28.657868    15.989699    18.778392 
   45.420252    28.652114    15.986328    18.773608 
   38.140328    28.648176    15.980625    18.768453 
   72.926605    28.645764    15.977717     18.76506 
   159.28606    28.646269    15.975951    18.763369 
  -6.3324961    28.653146    15.975093    18.762741 
  -156.12708    28.659769     15.97432    18.762359 
    -53.8693    28.660148    15.974335    18.761646 
  -23.224555    28.658371    15.972248    18.758052 
  -15.437077    28.655665    15.967862    18.749521 
  -9.4874804    28.652342    15.962252    18.738154 
   142.33077     28.64864    15.958309    18.729599 
   113.83151    28.650631    15.958321    18.722566 
   104.20316    28.657175    15.960923    18.716509 
   10.360607    28.667887    15.962803    18.712726 
   20.520875    28.679013    15.964833    18.708433 
  -95.082794    28.690961    15.963725    18.705952 
   -298.9572    28.699105    15.960859    18.706355 
  -161.36298    28.695291     15.95833    18.706471 
  -21.759508    28.685022     15.95716    18.709475 
   87.170933    28.673883    15.956363    18.712455 
   168.27057     28.66623    15.956861    18.715832 
    146.0658    28.665309    15.956678    18.719023 
   82.905742     28.67023    15.959347    18.720924 
   174.80939    28.678467    15.962864      18.7221 
     69.2912    28.693697    15.967393    18.719752 
  -181.95707    28.711699    15.970158    18.715577 
  -212.23932    28.722422    15.974003     18.71137 
  -210.20569    28.724655    15.976428    18.707242 
  -42.621014    28.718481    15.978642    18.702322 
   27.243307    28.710601    15.983099     18.70107 
   136.11407    28.703811    15.988548    18.700068 
   152.59857    28.702466    15.993415    18.697415 
   111.84195    28.707225    15.998653     18.69443 
   101.17368    28.716457    16.004326    18.691396 
    31.16548    28.729737    16.011631     18.68696 
  -45.561646    28.744263    16.019742    18.684236 
  -203.35308    28.756966    16.027455     18.68241 
  -238.17413    28.761536     16.03378    18.679729 
  -80.732601    28.756578    16.040068    18.679652 
    64.17258    28.748391    16.043197    18.679547 
   55.286127    28.742771    16.044862    18.677569 
   92.134448    28.739363    16.045942     18.67701 
   47.767179    28.739639    16.047556     18.67831 
   99.047891    28.741827    16.050862    18.683221 
    80.50375    28.747976    16.054212    18.691283 
  -28.035162    28.757346    16.056621    18.698935 
   -35.02111    28.765594    16.058526    18.707961 
  -136.58369    28.772442    16.059727    18.715894 
  -77.116189    28.773826    16.062007    18.725422 
  -39.585144    28.772125    16.062959    18.733736 
   15.032005    28.768841    16.065443    18.744363 
   92.901946    28.766158    16.070533    18.757851 
   115.51069    28.767191    16.075689    18.771309 
   92.220806    28.772845    16.080318    18.786769 
  -42.513277    28.782188    16.082617    18.802789 
   28.010466     28.78983    16.084972     18.81706 
  -22.920364    28.798592    16.090661    18.831737 
  -173.94843    28.806438    16.097738    18.848663 
  -287.46774    28.807326    16.103479    18.866316 
  -119.99198    28.796715    16.108596     18.88424 
    120.8094    28.781304    16.113704    18.903617 
   192.79832    28.770726      16.1187    18.921147 
   121.23429    28.767859    16.126276    18.939169 
   49.528458    28.769842    16.136222    18.957217 
  -106.81345    28.773806    16.146105    18.974037 
  -86.868966    28.773498     16.15612    18.990721 
  -69.815293    28.769715     16.16648      19.0029 
  -113.07557    28.763139    16.175596    19.010884 
  -102.07489     28.75204    16.182655    19.017143 
   30.981836    28.736858    16.191139    19.023598 
   158.43327    28.722916    16.202231     19.03113 
   133.21586    28.715311    16.217295    19.036213 
[...]
   115.77843    28.532387    19.146809    16.325409 
   55.527433     28.53245    19.140776    16.324348 
   35.206176    28.534735    19.138161    16.322753 
    27.61281    28.538428     19.13684    16.320901 
  -102.71143    28.543225    19.133089    16.317465 
  -155.26803    28.543914    19.129402     16.31465 
   -192.6347    28.538392    19.125765    16.309422 
  -114.49926    28.525165    19.124961     16.30433 
   13.388597    28.507357    19.127505    16.301975 
   38.442638    28.490086    19.131892    16.299334 
   122.05223    28.474352    19.137234    16.297612 
   176.23834      28.4635    19.145654    16.297524 
   114.11556    28.459697    19.156038    16.294469 
   30.310782     28.46046    19.166729    16.289303 
   0.7613887    28.462434    19.173714    16.281238 
   -198.5768     28.46444    19.179531    16.273678 
  -124.29795    28.458502     19.18201    16.264139 
  -34.472165    28.447592    19.182969    16.256096 
   75.969586    28.435303    19.182894    16.246729 
   143.27097    28.426053    19.183661    16.238187 
   171.66271    28.422534    19.185198    16.233037 
   186.58927    28.425882     19.18843    16.229838 
   48.128663    28.436692    19.190043    16.226268 
   -8.975477    28.449429    19.191168    16.222377 
  -163.78519    28.461806     19.19021    16.215449 
   -124.3257    28.467631    19.184478    16.207504 
  -106.07617    28.468484    19.177192    16.198811 
  -29.799653    28.465094    19.169054    16.188713 
  -4.3548572    28.460511    19.160151    16.179657 
   104.70891    28.455755    19.152155    16.170723 
   176.85277    28.455187    19.145707    16.162192 
    96.43125    28.461693    19.141194    16.155114 
   48.364747    28.472056    19.137204    16.148823 
  -138.26405    28.484353    19.136083     16.14044 
  -182.76492    28.491121    19.138229    16.134069 
  -175.36052    28.490577    19.142107    16.127225 
  -67.118458    28.483019    19.146342    16.119847 
  -9.7362329    28.472777    19.148482      16.1128 
   89.287008    28.462145    19.149969    16.107948 
   217.93601    28.455084    19.152823    16.103388 
   118.45596    28.456741    19.156638    16.098579 
   160.43029    28.463136    19.157826     16.09504 
  -66.745602    28.475949     19.15701    16.091969 
  -146.61874    28.486091    19.157957    16.087635 
  -198.95744    28.490369    19.159067    16.085602 
  -133.23697    28.486689    19.160644    16.083821 
  -15.326227    28.477679    19.163508    16.081093 
   55.520471    28.468056    19.164432    16.075254 
   133.99415    28.460653    19.165796    16.069325 
   198.24956    28.458611    19.166381    16.061797 
   115.08305    28.464498    19.172318    16.055553 
  -2.6427771    28.474989    19.179323    16.052074 
  -87.665375    28.485374    19.187576    16.053268 
  -108.56776    28.492253    19.196665    16.056074 
  -125.89904    28.494789    19.203837    16.057675 
  -153.23531    28.492289    19.209356    16.057069 
  -62.794965    28.483659    19.211605    16.053367 
   98.496765    28.472518     19.21322    16.048167 
   166.30698    28.465316     19.21706    16.042394 
   109.94804    28.464767    19.219977    16.037042 
   54.411813    28.468616    19.224132    16.031408 
   47.802508    28.474641    19.227187    16.024426 
  -29.744064    28.482578    19.230414     16.01599 
  -87.619468    28.489326    19.233585    16.005464 
  -217.73385    28.492568    19.234873    15.994002 
   -196.3363    28.487102    19.232516    15.979703 
    44.00935    28.473782    19.229769    15.962733 
   152.71383    28.462222    19.229348    15.946187 
   156.02013    28.456771    19.232131    15.930971 
   180.13531    28.457561    19.239572    15.916308 
    40.57708    28.465556    19.249114    15.903384 
   63.377408    28.475174    19.257748    15.892625 
   -51.08149    28.487327    19.264899    15.882421 
   -142.4538    28.497437    19.267171    15.871184 
  -164.09959    28.501849    19.268138    15.857744 
  -182.31489    28.499697    19.265422    15.840515 
   -60.49361    28.490252    19.261746    15.824026 
   124.10871    28.478388     19.26105    15.808263 
   196.83009    28.471487    19.264204    15.793775 
   120.80592    28.472461    19.270597    15.783709 
   91.028241    28.478266    19.281124    15.776373 
  -19.634051    28.487712    19.295987    15.773254 
   -67.13574    28.496373    19.313124    15.770438 
  -153.16712    28.502349    19.328699    15.769557 
  -226.31387    28.502198     19.33678    15.766224 
  -99.598309    28.492994    19.338585    15.760741 
   69.654751    28.479807    19.338406     15.75401 
   187.58499    28.469406    19.337774    15.750425 
   174.80081    28.466508    19.342542    15.749225 
   158.98106    28.470602    19.352176    15.752155 
   54.794837    28.481055    19.365991    15.758854 
  -32.213629      28.4937    19.382332    15.766224 
   -154.3615    28.505057     19.39926    15.772759 
  -245.03418    28.510239    19.411263    15.778766 
  -118.05084     28.50562    19.419077    15.780611 
   11.299529    28.496278    19.421981    15.780731 
   56.283334    28.487389     19.42448    15.781252 
   160.66529    28.480751    19.429638    15.781546 
   67.389851     28.48054    19.435764    15.783764 
   143.65992    28.483024      19.4456    15.790114 
   61.550397    28.491255    19.456789    15.799231 
  -43.910142    28.501947    19.467926    15.811744 
    -198.502    28.510884    19.476515    15.822497 
   -99.85898     28.51188    19.480922    15.828925 
  -108.05557    28.508882    19.480954    15.834831 
   70.917405    28.501561    19.477928    15.837287 
   136.33655    28.497078    19.477498    15.840055 
   205.01893    28.498047    19.479227     15.84574 
   29.838317    28.507218    19.484494    15.855938 
   36.083287    28.517582     19.48949    15.866019 
   -11.79658    28.529389    19.494952    15.876722 
  -147.89689    28.540725    19.499484    15.885392 
  -129.10588    28.546144    19.501266    15.891032 
  -61.662288      28.5464    19.497779    15.895063 
   1.3343849    28.544189    19.491828    15.898191 
   67.909416    28.542031    19.488319    15.901246 
   107.98513     28.54259    19.487875    15.908511 
   26.367586    28.547468    19.490204    15.919301 
  -20.900627      28.5534    19.495833    15.928596 
  -26.755589    28.558497    19.499856    15.932917 
  -185.47353    28.562524    19.500684    15.933864 
  -160.58293    28.559131    19.496762     15.92988 
  -40.177909    28.549316    19.487354     15.92613 
   59.965604    28.537893    19.476284     15.92707 
    45.41746    28.528869    19.468692    15.931817 
   107.16541    28.521661    19.464364     15.94245 
   100.52202     28.51874    19.459607      15.9599 
   36.338063     28.51984    19.458092    15.978055 
  -81.112053    28.522394    19.459784     15.99555 
  -96.648382    28.521703    19.459957    16.010209 
  -73.882437    28.517146    19.457635    16.016673 
    7.204746    28.509633    19.451682    16.014815 
   45.743013    28.502409     19.44206    16.011936 
   19.126695    28.497015    19.434327    16.012005 
   86.793563    28.492386    19.428453    16.016802 
   109.46551    28.491228    19.426013      16.0277 
   44.210598    28.494449    19.425278    16.044243 
   17.087393    28.499439    19.423937    16.063498 
  -58.622769    28.505112    19.423432    16.083162 
  -137.73842     28.50844    19.423322    16.101207 
  -108.62813    28.506259    19.423245    16.110237 
   54.643377    28.499732    19.419325    16.113938 
   55.496892    28.495391    19.414312     16.11766 
   79.278564     28.49327    19.409197    16.124508 
  -56.652097    28.494321    19.406466    16.136034 
  -37.491961    28.493105    19.405451    16.150733 
   22.120018    28.490389    19.405441    16.171347 
  -1.8774735    28.488558    19.406976    16.196021 
  -7.2766689    28.486653    19.407945    16.219876 
   49.376233    28.484456    19.407689     16.23616 
  -42.942711    28.484234    19.406899    16.246799 
  -4.6499092    28.482294    19.406652    16.250407 
   14.569416    28.480169    19.407543    16.252283 
  -23.098518    28.478626    19.409597     16.25801 
    28.90568    28.476159    19.412577    16.266378 
   89.713595    28.474849    19.416179     16.27865 
   13.070851    28.477127    19.419999     16.29206 
   56.253005    28.479928    19.423517    16.305807 
  -32.363414    28.484979    19.424869    16.316198 
  -36.728935    28.488735    19.423967    16.325053 
  -76.803398    28.491022    19.423952    16.332221 
   6.2230368    28.490238    19.424864    16.336425 
   29.996786    28.489702    19.429608    16.335821 
   53.412328    28.490366    19.434786     16.33323 
   58.146871    28.493166    19.440208    16.330054 
   56.752991    28.498292     19.44404    16.329446 
  -28.538864    28.505689    19.444707    16.331291 
  -33.636894    28.511944    19.444455    16.332422 
  -26.349303    28.516853    19.444234    16.333918 
  -79.592897    28.520709    19.442771    16.336379 
  -99.469575     28.52138    19.440544    16.339829 
  -2.9510721    28.518073    19.438135     16.34466 
  -15.947622    28.514648     19.43722    16.350984 
  -50.471931    28.510585     19.43773    16.356129 
  -2.2395073    28.504503    19.439591     16.35855 
  -18.342639    28.498332     19.44235    16.361865 
   3.2778701    28.491427     19.44235    16.362783 
   12.053798    28.484653    19.440612    16.366286 
   25.567415    28.478361    19.439198    16.369122 
   41.083833    28.473092    19.439414    16.372747 
  -17.743253    28.469466    19.440444    16.376659 
   26.663492     28.46513    19.442145    16.378896 
   95.150391    28.461861    19.444513    16.379087 
   36.719968    28.462398    19.448996    16.378633 
   22.812767    28.464404    19.452723    16.380194 
  -15.650334    28.467322    19.452796    16.383836 
  -48.656145    28.469614    19.451946    16.386565 
   5.1070159     28.46996    19.451808    16.391785 
   95.568601    28.470511    19.454842    16.400944 
  -37.836481    28.474884    19.457061    16.411224 
   -26.88405    28.477743    19.462795    16.422925 
   17.775378    28.479528    19.468455    16.431327 
  -25.904596    28.482023    19.472611    16.438477 
   43.613069    28.483482    19.479064    16.443895 
   28.141277    28.486685    19.483619    16.449012 
   71.086277    28.491015    19.485546    16.450972 
  -29.701644    28.498187    19.487135    16.451188 
   57.906548    28.504172    19.486177    16.448712 
   47.732588    28.512473    19.486341    16.447059 
   -90.89664    28.522683    19.487444    16.446396 
  -244.34364    28.529257    19.489631     16.44565 
  -139.78049    28.526058    19.492477    16.445355 
   69.593074    28.517267    19.496828    16.445545 
  -4.8672887     28.51126    19.500108    16.444269 
  -45.772092    28.505059    19.500657       16.444 
  -6.3275646    28.497026    19.497315    16.440623 
    34.08511    28.488741    19.490684    16.434688 
   79.424668    28.481818    19.478474     16.42661 
   103.65824    28.478073    19.466183     16.41925 
  -67.220377    28.478474    19.457027    16.413009 
  -150.82788    28.476187    19.449816    16.409968 
  -29.216258    28.467866    19.443428    16.407563 
   124.26474    28.458376    19.440101    16.404182 
   65.337616    28.453858    19.438813    16.403981 
  -6.1995305    28.451952    19.437338    16.403402 
   102.79839    28.449799    19.436722    16.401569 
   104.32369    28.451757    19.436603    16.398646 
   77.110948    28.457889    19.433489    16.394412 
   -12.20022    28.467105    19.427857    16.390771 
  -131.51378    28.475833    19.424143    16.391435 
  -172.90485      28.4793    19.421226    16.392874 
  0.95966604    28.475852    19.420267    16.396533 
  -5.8850295    28.472441     19.42103     16.39974 
  0.22267165    28.468795    19.423038    16.399676 
  -23.647981    28.465158    19.425454    16.397575 
  -49.308898    28.460576    19.426807     16.39506 
   80.837203     28.45402      19.4252    16.393129 
   39.917554    28.450699     19.41954    16.391698 
  -46.386126    28.448974    19.414206    16.391416 
  -113.68302    28.445393     19.40798     16.39256 
  -62.102944    28.437266    19.405099    16.396312 
   72.156868    28.426654    19.404926    16.400286 
   78.887785    28.418928     19.40743    16.405041 
   25.355507    28.414358    19.410956     16.41069 
   80.191253    28.410802     19.41238    16.413998 
   128.98321    28.410454    19.413488    16.415255 
   117.31122    28.415265    19.413041    16.417777 
   45.735387    28.424769    19.412451    16.422191 
  -101.22381    28.436102    19.413137     16.42786 
  -101.23393    28.443386    19.413508    16.434826 
  -74.304185    28.446621     19.41496    16.443937 
   29.081591    28.446883    19.417609    16.448894 
   -8.836404    28.448309    19.420197    16.452148 
  -56.920086    28.449381    19.422735    16.451823 
    42.64771    28.448177    19.422145    16.448427 
   87.477712    28.448678    19.419725    16.441838 
   102.59774    28.452679    19.417936    16.440024 
   71.434284    28.460783    19.414887    16.440905 
  -1.3688957    28.471745    19.411423    16.444526 
  -151.84313    28.482652    19.408059    16.450948 
   -134.6499    28.487485    19.407815    16.455803 
  -106.19998    28.486933    19.409313    16.456461 
  -28.918291    28.482132    19.411811    16.455344 
  -2.1015737    28.476175    19.411784    16.453209 
  -16.303539    28.470133     19.40596     16.45103 
   48.524417     28.46344    19.396629    16.449267 
   70.523302    28.458687    19.385558    16.448049 
   91.372342    28.456755    19.372309    16.447536 
    136.7899    28.458478    19.360919    16.447278 
   15.344508    28.465673    19.356051    16.449835 
  -6.1932788    28.473482    19.358287    16.453963 
  -156.32998    28.481043    19.365131     16.45713 
  -158.26548     28.48235    19.373313     16.46199 
  -29.595573    28.477327    19.380552    16.467335 
    64.68969    28.471121     19.38574     16.47392 
   105.36282    28.467501    19.389753    16.481724 
   35.412538    28.468097    19.394727    16.489583 
   57.506551    28.470109    19.398075    16.498788 
   88.318614    28.474421    19.400827     16.50836 
   66.188451    28.482265    19.404144    16.515479 
  -56.513892    28.492758    19.410527    16.517122 
  -73.508477     28.50099    19.417345    16.513938 
  -189.73387    28.506281    19.423584    16.511613 
  -124.59697    28.503983    19.430289    16.508815 
   40.409697    28.496701    19.437964    16.506842 
    94.88652    28.491036    19.445431    16.504567 
   14.608706    28.489166    19.451886    16.501978 
   54.540602    28.487881       19.459      16.5007 
   121.87406    28.488777     19.46717    16.498661 
   21.120555    28.494548    19.476557    16.496719 
   -5.072225    28.501163    19.485627    16.494609 
  -121.85792    28.507576    19.495317    16.491581 
  -151.11289    28.509115    19.502305    16.488166 
  -157.99611    28.504609    19.507882    16.480697 
   22.406633    28.493783    19.512999    16.466922 
   99.877177    28.483854    19.518153    16.452256 
    100.0203     28.47792    19.522414    16.439542 
   101.95201    28.475986    19.524913    16.428915 
   128.86034    28.478131    19.529261    16.422698 
   94.115095    28.485429    19.534494    16.419459 
  -58.138015    28.496493    19.540467    16.415693 
  -105.66434    28.505231    19.546496    16.414766 
  -172.86515    28.509742    19.554058    16.414138 
  -134.19112    28.507339    19.562241    16.412763 
   -52.10258    28.499568    19.570762    16.412837 
   22.510087    28.489714     19.57911    16.407386 
   91.868698    28.480759    19.585563    16.397536 
   148.41806    28.475479    19.592492    16.389161 
   136.75354    28.476136      19.6027    16.382544 
   75.561209    28.482263    19.612742    16.377131 
  -19.431092    28.491413     19.62541    16.375494 
  -31.071564    28.499785    19.641309    16.373505 
  -75.868883    28.506915     19.65517    16.371431 
     -102.91    28.511009    19.669586    16.369087 
  -18.523042    28.510988     19.68177    16.366803 
   54.671877    28.510225     19.68715    16.362294 
   63.853464    28.511649    19.689434    16.353889 
   59.892344    28.515628    19.692215    16.346409 
   -9.773138    28.522002     19.69698    16.340649 
     18.9376    28.527985    19.704764    16.338706 
   16.114262    28.534725    19.715351     16.33971 
  -38.752022    28.542111    19.727223      16.3383 
  -77.276684    28.547946    19.737207    16.335488 
  -116.78685     28.55069    19.746713    16.330542 
  -41.800313    28.548763    19.755156    16.323038 
   19.641722    28.545163    19.762176    16.313007 
   45.338808    28.542349    19.767724    16.303547 
   18.371705    28.541349    19.774232    16.294843 
  -32.810263    28.541084    19.782079    16.288821 
   14.324498    28.539506    19.790037    16.287069 
  -55.614175    28.538501    19.795738    16.286488 
   5.6884301    28.535272    19.798285    16.285806 
   88.561493     28.53227    19.799653     16.28804 
   113.91277    28.532811    19.801441    16.289688 
  -28.174121    28.537908    19.802747    16.290609 
  -104.45598    28.541878    19.803461    16.289708 
  -82.042747     28.54167    19.802382    16.288586 
  -7.9642587    28.538181    19.799929    16.288516 
    72.76079    28.534372    19.797272    16.291902 
   89.112938    28.533474    19.795998    16.297584 
 -0.72424463    28.536141    19.792833    16.303963 
  -25.557711    28.538779    19.788864    16.309006 
   21.397796    28.540394    19.788031    16.317213 
  -92.298613    28.542865    19.786847    16.323998 
  -92.888689    28.541645    19.785488    16.328362 
   -50.78812    28.536709    19.785769    16.330177 
   6.9487119    28.529741    19.786262    16.329683 
    20.65112    28.523051    19.789596    16.327882 
   34.575503    28.517187    19.793516    16.324771 
  -27.196504    28.512707     19.79526    16.322843 
  -50.041235    28.507138    19.797313    16.321482 
   131.92614    28.499568    19.798594    16.318171 
   47.632239    28.497275    19.797902    16.311363 
   53.137433    28.496887    19.794517    16.301081 
  -28.817654    28.498624    19.789903    16.287994 
  -72.961211    28.499209    19.784821    16.274751 
   29.987514    28.496876    19.782614     16.26291 
   66.980998    28.495742    19.784506    16.254689 
  -5.8545342    28.497287    19.785922     16.24909 
  -84.465493    28.498598    19.789603    16.246935 
  -24.883894     28.49653    19.792527    16.247215 
   98.529388    28.493467    19.795741    16.249185 
   25.293121    28.494345    19.797789     16.25253 
  -33.381528    28.496235    19.798199    16.253772 
   23.254698     28.49679    19.800101     16.25262 
Loop time of 302.317 on 4 procs for 50000 steps with 8887 atoms

Performance: 285792.838 tau/day, 165.389 timesteps/s
99.9% CPU use with 4 MPI tasks x no OpenMP threads

MPI task timing breakdown:
Section |  min time  |  avg time  |  max time  |%varavg| %total
---------------------------------------------------------------
Pair    | 183.34     | 220.65     | 260.73     | 249.6 | 72.99
Bond    | 0.0078354  | 0.011327   | 0.02015    |   4.8 |  0.00
Neigh   | 30.918     | 30.957     | 30.995     |   0.7 | 10.24
Comm    | 8.7442     | 48.615     | 85.709     | 528.7 | 16.08
Output  | 0.71544    | 0.7599     | 0.84425    |   5.9 |  0.25
Modify  | 0.59955    | 0.77459    | 0.96165    |  18.4 |  0.26
Other   |            | 0.546      |            |       |  0.18

Nlocal:    2221.75 ave 2670 max 1780 min
Histogram: 2 0 0 0 0 0 0 0 0 2
Nghost:    5513.25 ave 5955 max 5065 min
Histogram: 2 0 0 0 0 0 0 0 0 2
Neighs:    341003 ave 398923 max 283391 min
Histogram: 2 0 0 0 0 0 0 0 0 2

Total # of neighbors = 1364011
Ave neighs/atom = 153.484
Ave special neighs/atom = 0.00540115
Neighbor list builds = 5000
Dangerous builds = 5000
Total wall time: 0:05:02
