LAMMPS (17 Nov 2016)
Reading data file ...
  orthogonal box = (0 0 0) to (60 30 30)
  2 by 1 by 2 MPI processor grid
  reading atoms ...
  8887 atoms
  scanning bonds ...
  1 = max bonds/atom
  reading bonds ...
  9 bonds
Finding 1-2 1-3 1-4 neighbors ...
 Special bond factors lj:   0          0          0         
 Special bond factors coul: 0          0          0         
  2 = max # of 1-2 neighbors
  2 = max # of 1-3 neighbors
  4 = max # of 1-4 neighbors
  6 = max # of special neighbors
10 atoms in group polymer
1 atoms in group first
Neighbor list info ...
  1 neighbor list requests
  update every 1 steps, delay 10 steps, check yes
  max neighbors/atom: 2000, page size: 100000
  master list distance cutoff = 3.3
  ghost atom cutoff = 3.3
  binsize = 1.65, bins = 37 19 19
Setting up Verlet run ...
  Unit style    : lj
  Current step  : 0
  Time step     : 0.02
Memory usage per processor = 4.13948 Mbytes
v_ftotal c_com[1] c_com[2] c_com[3] 
   66.786285         17.5           15           15 
   59.568648    17.502161    15.003346    15.011499 
   6.8651775    17.506706    15.006084    15.020869 
  -15.422771    17.511524    15.006188    15.027407 
   79.643226    17.515726    15.007348    15.032398 
   59.564182    17.523114    15.008681    15.038886 
   65.111544    17.532884    15.010335    15.048187 
   45.283367    17.545259    15.010718    15.057592 
   62.470525    17.559445    15.010905    15.067218 
    6.819955     17.57613    15.012753    15.074729 
 -0.45341914    17.593087    15.015847    15.082152 
   6.6759588    17.610027      15.0194    15.090282 
   77.950691    17.627233    15.024354    15.097339 
   4.4231917    17.647558    15.028385    15.105168 
   20.179729    17.668059    15.032303    15.114101 
   40.301938    17.689368    15.037493    15.120704 
  -19.610944    17.712289     15.04143    15.128987 
   46.308933    17.734425    15.044819     15.13572 
   21.505203    17.758414    15.049612    15.142039 
   43.502099    17.783262    15.052708    15.148576 
   13.078373    17.809851    15.054107    15.157202 
   13.522026    17.836963    15.054238    15.164518 
   68.172904    17.864616    15.055765    15.172265 
  -24.346076    17.894996    15.055929    15.182125 
   16.048313    17.924402    15.055604     15.19153 
   -16.07985     17.95445    15.054362    15.200528 
   4.4612404    17.983855    15.052887    15.209681 
  -21.981567    18.013438    15.054131    15.217455 
   1.9252301    18.042142    15.058346    15.226095 
  -2.8831107    18.070923     15.05944    15.234886 
  -4.5499942    18.099589    15.060799    15.242677 
   56.249673    18.128072    15.062279    15.249988 
   45.877276    18.158806    15.062065    15.257412 
  -11.538383    18.191375     15.05987    15.267422 
   67.839091    18.223482    15.056998    15.276441 
  -10.424745    18.258303     15.05467    15.285532 
   8.3557698    18.292706    15.053377    15.293444 
   15.743993    18.327444    15.054209     15.30137 
  -4.0090101    18.362812    15.058031    15.308078 
   11.674857     18.39802    15.062122    15.315709 
  -21.429934    18.433694     15.06601     15.32165 
    17.21204    18.468511    15.068343    15.326589 
   53.336356    18.504017    15.071065    15.332109 
   -9.112321    18.541656    15.073907    15.337781 
   40.751114    18.578931    15.078089    15.342984 
   -20.26515    18.617835    15.082429    15.347407 
   35.944626    18.655929    15.085285     15.35054 
     30.5232    18.695461    15.087076    15.354996 
  -11.627066    18.736214      15.0889    15.358149 
  -8.1223299    18.776502      15.0898    15.361416 
  -7.0446723    18.816464    15.089128    15.365796 
   15.634021    18.856145    15.088575    15.370508 
   12.888678    18.896452    15.088184    15.374819 
    33.77931    18.937274    15.087528    15.379424 
   74.560839    18.979447    15.086193    15.384454 
   3.8365257    19.024602    15.083933    15.388732 
  0.33553861    19.069911    15.081526    15.394206 
   3.5117245    19.115234    15.080807     15.40087 
   46.877892    19.160697    15.079067    15.406793 
  -11.890145    19.208035    15.075512    15.412047 
   5.2522356    19.254897    15.072035     15.41642 
  -25.974065     19.30197    15.069306     15.42018 
   33.960593    19.348003    15.068733    15.420152 
  -31.935427    19.395395    15.068029    15.420292 
  -1.8254013     19.44151    15.066703    15.421409 
  -40.465141    19.487551     15.06598    15.422745 
  -42.788911    19.531974    15.066372    15.423642 
   14.106995    19.574685    15.065542    15.423846 
   20.463845    19.617961    15.066125    15.425156 
   -6.437717    19.662055    15.065131    15.428384 
   27.623169    19.705892      15.0614    15.432292 
   -28.20629    19.750833     15.05802    15.435554 
  -29.658538    19.794647     15.05525    15.440672 
  -17.732338    19.837274     15.05344     15.44634 
  -16.129998    19.879191    15.054064    15.451122 
  -50.558694    19.920464    15.054057    15.457065 
   20.744393    19.959714     15.05417    15.463232 
   -10.75458    19.999794    15.053886    15.467043 
   30.239596    20.039444    15.051988    15.469637 
  -55.691176    20.080303      15.0496    15.470398 
  -17.497091    20.118935    15.045748    15.472657 
  -7.4060033    20.156867    15.042494    15.474378 
   30.644519    20.194502    15.038664     15.47379 
  0.42094742    20.233364    15.035005    15.473754 
  -20.799841    20.272242    15.031175    15.473981 
   37.618516    20.310288    15.026914    15.475074 
   34.962994    20.349839    15.021907    15.477416 
  -4.1631521    20.390788    15.017562    15.477816 
  -3.4713498    20.431571    15.014565    15.477663 
  -9.3852775    20.472215    15.011404    15.476881 
  -33.086105    20.512484    15.009638    15.479078 
   3.1401359    20.551429    15.007532    15.481961 
   3.7421738      20.5905    15.003162    15.483335 
   31.650082    20.629721    14.996505    15.483059 
   54.480783    20.670207    14.989506    15.481444 
   -14.85069    20.712873    14.981611     15.48063 
    52.15095    20.754945    14.971399    15.479529 
   56.252881    20.799102    14.960259    15.479652 
  -7.3162921     20.84551    14.947123    15.480477 
   7.3389742    20.891625    14.932323    15.481144 
  -32.719857    20.938034    14.920064    15.483263 
   36.892618    20.983134    14.907666    15.485281 
  -10.653444     21.02971    14.894076    15.485983 
  -28.531577    21.075859     14.87878    15.485168 
  -39.678566    21.120868     14.86344     15.48419 
  -23.921414    21.164289    14.848416    15.483675 
   7.5527225    21.206753    14.833483    15.483129 
  -18.617867     21.24952     14.81617    15.483298 
  -29.266895    21.291541    14.798545    15.482301 
   37.424403    21.332392    14.782301    15.479643 
  -51.300199     21.37474    14.767639    15.476763 
  -39.494694    21.415036    14.755093    15.473574 
  -14.173665    21.453752    14.742893    15.470563 
   18.766347    21.491902    14.734167     15.46949 
   21.626259    21.530802     14.72587    15.466075 
  -52.619981    21.570566    14.716028    15.464262 
   1.0251568    21.608227    14.705425    15.464101 
  -37.597508    21.645928    14.694874    15.463381 
  -18.354384    21.682125    14.681583    15.462702 
   12.334122    21.717588     14.66898    15.462605 
  -15.888231    21.753545    14.655856    15.460529 
   40.303842    21.788865    14.644463    15.458819 
  -50.438035    21.825799    14.633008    15.454724 
  -28.161702    21.860714    14.621381    15.451456 
   13.494273    21.894503    14.610203    15.448339 
   43.053278    21.928832    14.600371    15.443769 
   45.721862    21.964883    14.591052    15.439293 
   -81.01722    22.002763    14.581351    15.436764 
   2.7472459    22.037402    14.571863    15.433297 
  -74.118876    22.072151    14.562661    15.429106 
  -49.458731    22.103935    14.555568    15.423727 
  0.44054398    22.133741     14.54848    15.420142 
   -42.56759    22.163565    14.541694    15.415355 
   31.891013    22.191686    14.535469    15.409845 
  -18.966012    22.221082    14.530652    15.404272 
  -46.151178     22.24972    14.525608    15.398782 
   5.6435298    22.276512    14.521087    15.391494 
   48.186021     22.30353    14.518688    15.386246 
  -19.399656    22.332475    14.517505    15.380728 
  -2.7363033    22.360644    14.515416    15.376718 
  -36.260883    22.388703     14.51397    15.374795 
  -43.102926    22.415312    14.511294    15.374267 
  -8.4546546    22.440197    14.507327    15.371619 
   7.8637649    22.464744    14.503303    15.367929 
  -44.962963    22.489605    14.500908    15.363054 
   47.562741    22.512668    14.497834    15.360994 
   22.218694    22.537634    14.496819    15.361035 
  -46.221999    22.563488    14.496998    15.359638 
   28.732626    22.587493    14.497122    15.358512 
  -39.548414    22.612648    14.498323    15.357773 
  -15.179399     22.63622    14.498626    15.356903 
  -51.894712    22.659186    14.500365    15.353167 
    18.07319    22.680075    14.503248     15.34779 
  -31.658318    22.701688    14.506871    15.341372 
  -6.7003917    22.722034    14.509471    15.332172 
  -39.784192    22.742112    14.510165    15.322011 
  -61.832315    22.760599    14.512036    15.312008 
  0.25920403    22.776613    14.514255    15.302236 
  -76.322891    22.792637    14.516158    15.293254 
  -6.4547495    22.805608    14.517856    15.285785 
  -11.867664    22.818321    14.517132     15.27923 
  -7.4763559    22.830559    14.516927    15.273866 
  -11.564233    22.842498    14.518185    15.265664 
  -67.843556    22.853974    14.519582     15.25739 
    49.98856    22.862737    14.520242    15.249444 
  -29.160178    22.873499    14.521666    15.241731 
   26.914549    22.883095    14.520904    15.235006 
  -36.726929    22.893768     14.52188    15.226115 
  -37.744756    22.902971    14.523555    15.219605 
  -1.1323015    22.910665    14.525377    15.210715 
   4.9506034    22.918313    14.528583    15.203013 
   27.518141    22.926159    14.532087    15.194709 
    6.936509    22.935106     14.53655    15.184875 
  -9.6330279    22.944331    14.540328    15.174349 
  -7.5634496     22.95317     14.54493      15.1647 
  -21.919389    22.961707    14.550888    15.155517 
   19.947579    22.969367    14.557288    15.144934 
   -45.94359    22.977824    14.562952    15.134897 
  -31.281139    22.984444    14.568538    15.126645 
  -35.951981    22.989813    14.575359    15.117102 
  -65.764991    22.993744    14.582564    15.106715 
  -19.584795    22.995044    14.592865    15.095529 
  -19.102912    22.995561    14.605303    15.085799 
   22.940469    22.995313    14.617218    15.072916 
   17.064383    22.995984    14.627562    15.060371 
  -9.8851055    22.997336    14.636568     15.04778 
    -79.1677    22.998294     14.64652    15.035667 
   7.5788834    22.996084    14.655427    15.025709 
  -65.272806    22.994178    14.662595    15.016091 
   19.621963    22.989661    14.670623    15.007976 
  -7.9657104    22.985929     14.67779    14.999829 
   12.304696    22.981878    14.686073    14.993267 
   4.4201634     22.97832    14.696242    14.986531 
   2.8229185    22.974938    14.705319    14.979394 
   31.538208    22.971669    14.712637    14.971777 
 -0.40136523    22.969662    14.717243    14.964357 
   5.4904712    22.967638    14.724558    14.959589 
  -23.492395    22.965834    14.732579    14.954389 
  -8.2364454    22.963091    14.741384    14.950608 
  -17.175185    22.960018    14.751299    14.947984 
  -25.638249    22.956258    14.761077    14.944556 
   34.672845    22.951472    14.771752    14.940444 
  -23.440164    22.948074     14.78295    14.934093 
  -38.093321    22.943738    14.795522    14.928811 
   -41.07597    22.937878    14.806134    14.925249 
  -22.012635    22.930375    14.816694    14.923975 
  -45.818309    22.921991    14.824789     14.92393 
  -46.031776    22.911775    14.831669    14.926024 
   20.548424    22.899718    14.838698    14.928587 
  -4.0378086    22.888482    14.845396    14.930184 
   39.907602    22.877085    14.852457    14.931707 
  -13.558904    22.867284    14.859155    14.932803 
   14.043025    22.856941    14.865319    14.934816 
   35.972086     22.84716    14.872623    14.935161 
  -39.149223    22.838817    14.879941    14.936435 
   9.4528094    22.828909    14.887952     14.93914 
   15.586532    22.819378    14.896573    14.943424 
  -2.0936283    22.810471    14.903917    14.946228 
  -14.007264    22.801481    14.911469    14.947684 
  -1.7710759     22.79193    14.921696    14.949019 
  -15.428508    22.782308    14.932835    14.951248 
   -14.68777    22.772069    14.943403    14.955312 
  -20.102883    22.761243    14.952135    14.959576 
   22.579497    22.749612    14.961902    14.963696 
  -4.9567608    22.738885    14.972763    14.968409 
  -11.436819    22.727959    14.983546    14.970896 
  -5.4503996    22.716576    14.996045    14.973907 
   32.978277    22.704975    15.008051    14.976876 
  -6.3867682    22.694693    15.018272    14.981146 
  -16.728323    22.684156    15.029466    14.983265 
   20.856445    22.672949    15.040108    14.982039 
   4.7139525    22.662577    15.048237    14.982885 
   7.4504493    22.652393    15.053724    14.984815 
  -36.241406    22.642507    15.059001    14.986641 
  -1.7822677    22.631172    15.062938    14.987854 
   21.574787    22.619765    15.065876    14.989457 
  -68.352032    22.609221    15.068965    14.989845 
   34.469161    22.595944    15.074139    14.989865 
   29.956011    22.584045    15.079024    14.990787 
   -16.63667    22.573344     15.08342    14.991756 
   6.5581021    22.561977    15.087909    14.991855 
   -7.905697    22.550874    15.092061    14.992909 
   29.525856    22.539453    15.096308    14.994086 
    -2.27213    22.529214    15.100405    14.996028 
  -38.222782    22.518884    15.103064    14.997584 
  -14.845708    22.507025    15.106169    15.000995 
   -50.28586    22.494573    15.108434    15.002466 
  0.72802039    22.480108    15.112127    15.003976 
    71.77829    22.465673    15.115081     15.00659 
   8.3727711    22.454109    15.118925     15.00882 
    -30.4522     22.44288    15.124879    15.010371 
  -10.551615    22.430433    15.131158    15.013075 
   45.844418    22.417564     15.13769    15.015595 
   10.809637    22.406529    15.145922    15.019115 
  -13.354476    22.395926    15.153982    15.023323 
   7.0850395    22.384789    15.162385    15.027172 
  -18.103822    22.373935    15.169115    15.029917 
  -1.0591488    22.362357    15.174195    15.030954 
  -16.842238    22.350737    15.176891    15.030626 
    20.07684    22.338443    15.179906     15.02864 
   27.593618    22.326952    15.182884    15.027768 
   13.985789    22.316564    15.185075    15.026518 
   38.732579    22.306737    15.186282    15.025763 
  -44.168353    22.298458    15.187072    15.025488 
  -27.303628    22.288413    15.187734    15.025529 
   -18.05837    22.277276    15.189572    15.024847 
   -25.53419    22.265416    15.190307    15.023909 
   30.082845    22.252535    15.191018    15.023921 
   1.4284401    22.240857     15.19203    15.024061 
    39.05788    22.229237    15.194286    15.024285 
    9.822149    22.219179    15.196043    15.025179 
   12.823393    22.209513    15.197714    15.026506 
  -1.8954458    22.200361    15.198955    15.028408 
    1.073091    22.191132    15.200885    15.029815 
  -6.8014663    22.181947    15.203429    15.030816 
   32.635678     22.17249    15.207225    15.031725 
   19.774054    22.164338    15.210713    15.033496 
  -6.9008299    22.156977      15.2146     15.03469 
    84.08374     22.14934    15.220005    15.034295 
   36.897786    22.145066    15.226569    15.034494 
  -12.317209    22.142268    15.232009    15.033047 
   60.502723    22.138978    15.237269    15.031263 
  -3.5839355    22.138108    15.242465    15.029158 
  -35.769591    22.137094    15.247811    15.024816 
  -20.985175    22.134649    15.251318    15.019975 
   18.407436    22.131365    15.253448    15.015322 
   34.308178    22.128818    15.255911    15.010854 
  -7.5262545    22.127643    15.256671    15.004804 
  -19.876928    22.126166    15.258711    14.999164 
  -9.1917596    22.123895    15.261108    14.994102 
  -35.908719    22.121256    15.265358    14.990974 
   57.135791     22.11718    15.268931     14.98569 
  -43.268187     22.11539    15.273703    14.980744 
   5.8083081     22.11187    15.279051    14.975491 
   13.180207    22.108581    15.283759    14.971887 
   10.204043     22.10582    15.289029    14.969883 
  -7.9830617    22.103467    15.294205    14.967509 
  -3.3133546    22.100795    15.297396    14.967231 
   21.661638     22.09799    15.298747    14.966301 
  -38.812525    22.096051    15.299973    14.967984 
  -36.791846    22.092561    15.303437    14.969495 
   6.9077363    22.087598    15.309389    14.971563 
   58.364662    22.082912    15.314902     14.97375 
   64.970771     22.08056    15.320747    14.976378 
   39.015755    22.080807    15.322944    14.979412 
  -39.154537    22.082615    15.323207    14.981407 
   36.194251    22.082857    15.321759    14.986398 
   -61.24197    22.084546    15.319684    14.992895 
  -18.903796    22.083786     15.31641    14.998504 
   2.9839413    22.082269    15.313245    15.006035 
-0.063237095    22.080872    15.307856    15.012063 
   9.0125411    22.079472    15.302932    15.018447 
  -12.300541    22.078433     15.29982    15.024369 
  -24.382992    22.076902    15.298345    15.032099 
   -64.52704    22.074396    15.297341    15.039557 
   44.739689    22.069308    15.295297    15.046666 
   -14.00853     22.06601    15.295175    15.052437 
  -3.8027665    22.062152    15.295429    15.055629 
   3.3667435    22.058141    15.294928    15.057354 
  -32.172347    22.054266     15.29321    15.059418 
 -0.19633375    22.049103    15.291922    15.062853 
  -8.3081697    22.043932     15.28905    15.067562 
  -14.874018     22.03843     15.28734    15.070857 
  -14.654701    22.032332    15.283219    15.074139 
  -76.764126    22.025648    15.276966    15.079028 
  -17.514136    22.015893    15.269984    15.083571 
  -10.855504    22.005438    15.262162    15.087068 
  -10.565604    21.994549    15.252711    15.088891 
   11.416625    21.983237     15.24226    15.089532 
   32.117752    21.972382    15.233389    15.088381 
   44.614915    21.962811    15.222661    15.088596 
  -13.686745    21.955025    15.215667    15.089485 
  -1.5729083    21.946692    15.209354    15.089312 
  -39.937592    21.938295    15.203187    15.087458 
  -36.123608    21.928301    15.196623    15.084403 
  -18.569342    21.916863    15.188763    15.082468 
   1.3051675    21.904681    15.182003    15.081371 
  -9.0818027    21.892552    15.174862    15.079666 
   -32.65554    21.880059    15.168598    15.076764 
   45.542662     21.86626    15.160913     15.07445 
   32.026115    21.854283    15.151272    15.073672 
  -4.0610029    21.843587    15.142361    15.075022 
   28.724013    21.832728    15.133394    15.078262 
  -33.309808    21.823019     15.12372    15.083064 
   27.068289    21.811977    15.112084    15.088933 
   40.404931    21.802017    15.100793    15.095413 
   54.931175    21.793674     15.09005    15.100838 
   14.023118    21.787529    15.078431    15.104282 
   46.008458    21.781944    15.066663    15.108403 
  -4.9364702    21.778199    15.056842    15.115266 
  -28.350497    21.774257    15.047624    15.121137 
  -25.111369    21.769181    15.040333    15.126394 
   18.141925    21.763101    15.032161    15.131202 
  -27.575186    21.757746    15.024736     15.13585 
   35.447785    21.751288    15.018975    15.140003 
   -24.09551    21.746248    15.013576    15.143561 
   31.347532    21.740244    15.009947    15.147785 
  -18.348151    21.735494    15.006073    15.150839 
   17.236093    21.730011    15.000782    15.153777 
   6.1529788    21.725216    14.996767    15.156905 
  -12.824907    21.720668    14.992653    15.160088 
   30.395857    21.715607    14.988017    15.161662 
   42.045503    21.711762    14.983782    15.162687 
   1.0061918    21.709598      14.9785    15.163765 
   16.396542    21.707475    14.976057    15.165869 
   36.742287    21.706007    14.974371    15.168983 
  -18.632741     21.70601    14.973634    15.171549 
   16.457104    21.705267    14.973566    15.174673 
   6.9368973    21.705182    14.973665    15.178028 
   103.40103    21.705375    14.975365    15.179554 
  -11.489934    21.709703    14.975133    15.183559 
  -71.932446    21.713573      14.9732    15.186845 
   17.856916    21.714564    14.971313    15.189885 
   16.850629    21.716271    14.968823    15.191598 
   31.540773    21.718651    14.966644    15.191929 
   -18.45065    21.722293    14.964276    15.191735 
  -13.673678    21.725196    14.961498    15.191781 
  -21.833773    21.727553    14.958652     15.19297 
  -6.5230316    21.729037    14.953762    15.194097 
   13.302214    21.730259     14.94702    15.194797 
  -15.977912    21.732014    14.940502    15.197101 
  -102.31026    21.733129    14.934733    15.198045 
  -44.632614    21.730152    14.929492    15.199905 
    46.24929     21.72539    14.924739    15.203082 
  -14.361902    21.722478     14.91976    15.205139 
  -18.640262    21.718991    14.915048    15.205812 
  -43.503297    21.714759    14.908815    15.207373 
  -5.8882939    21.708787    14.901776    15.207105 
   21.999982    21.702579    14.894405    15.205691 
   84.630984    21.697251    14.886995    15.205708 
  -2.1934565    21.695308    14.877957    15.207467 
   42.132781    21.693277    14.869845    15.210117 
  -0.9535224    21.692932    14.861648    15.212135 
   25.908042    21.692549    14.855603    15.215671 
  -49.252229    21.693202    14.849443    15.219241 
    21.00424    21.691885    14.841791    15.223024 
   25.546572    21.691408    14.835399    15.227775 
     55.8106    21.691953    14.830001    15.233015 
   55.188609     21.69473    14.825665    15.238481 
  -56.868569    21.699715    14.821959    15.245945 
   41.244131    21.702426    14.818703    15.251558 
  -29.065327    21.706786    14.816309    15.257722 
  -33.373015    21.709983    14.813848    15.266456 
    4.933407    21.711845    14.811234    15.274831 
   20.100275    21.713905    14.805815     15.28412 
  -17.148222    21.716769     14.79939    15.294542 
   -2.616279    21.718947    14.793708    15.306202 
   6.9045967     21.72102    14.786083    15.318116 
  -31.167992    21.723369    14.778379    15.329446 
  -2.7154694    21.724472    14.770867    15.341799 
  -4.9592707    21.725466    14.762721    15.353384 
  -33.790196    21.726262    14.755786    15.364458 
   7.4761234    21.725706    14.747368    15.375723 
  -62.104834    21.725449    14.740019    15.387755 
   39.295955    21.722708    14.734052    15.401538 
  -42.310493    21.721538    14.731336    15.414362 
   28.103539    21.718677    14.729422    15.426407 
   18.492626    21.716939    14.728143    15.438257 
   24.404682    21.715941    14.726417    15.448567 
  -2.1351607     21.71592    14.726453    15.457871 
  -29.423871    21.715813    14.726068    15.465733 
  -45.762634    21.714529    14.725693    15.473405 
  -14.810154    21.711414    14.726579    15.479253 
    39.09864    21.707707    14.726775    15.486332 
  -16.200206    21.705564    14.725886    15.494331 
  -72.843364    21.702773    14.724959    15.499188 
   31.052121    21.697069    14.722703     15.50353 
   6.5319664    21.692606    14.722356    15.508651 
  -16.857538    21.688405     14.72281    15.512498 
  -42.047384    21.683529    14.723705    15.517203 
   35.764407    21.676972    14.723963    15.521407 
   17.758541    21.671845    14.722903    15.525563 
  -12.729094    21.667428    14.722179    15.527662 
  -15.549158    21.662502    14.721795    15.530169 
  -31.672533    21.656954    14.722982     15.53137 
  -42.136446     21.65014    14.723252     15.53152 
   7.0413819     21.64164    14.723122    15.530965 
   55.474235    21.633421    14.722265    15.531004 
   34.903271    21.627422     14.72007    15.529888 
   80.069727    21.622818    14.717672    15.527007 
  -23.531935    21.621418    14.716006    15.522603 
  -18.965825    21.619076    14.714045    15.520439 
   33.597243    21.615975    14.710814    15.518149 
   10.987356    21.614219    14.707454    15.514697 
   22.857928    21.612902    14.703201    15.512096 
   20.663541    21.612499    14.700757    15.510407 
   1.5624077    21.612923    14.698894    15.508923 
  -13.861982    21.613409    14.696649    15.507702 
   4.2981588    21.613341    14.695934    15.507243 
   85.458605    21.613444    14.693397    15.506051 
  -45.364527    21.616967     14.68989    15.503883 
  -54.946271    21.618674    14.687378     15.50281 
  -15.706779    21.618184    14.686383    15.501215 
    -8.83403    21.617065    14.687443    15.497233 
   48.952526    21.615593    14.688071    15.492929 
  -17.096199    21.616079    14.689331    15.489168 
  -39.529896    21.615881    14.689198    15.485006 
     42.7473    21.614102    14.688454    15.481367 
  -18.307976    21.614033    14.688698    15.479385 
   11.714794    21.613232    14.688222    15.476834 
    32.30824    21.612899    14.685632    15.473745 
    5.148864    21.613859    14.684216    15.474658 
  -8.0290121    21.615024    14.684083    15.474826 
  -14.317572    21.615868    14.682273    15.475847 
   1.7937422     21.61614    14.680498    15.476183 
  -51.740903    21.616483    14.678781    15.477431 
   11.692968    21.614757    14.676833    15.479501 
   -8.852024    21.613499    14.674077    15.481731 
  -56.831431    21.611886    14.669817    15.482637 
   40.042906       21.608    14.665313     15.48229 
    4.301159    21.605716     14.66111    15.482235 
   54.225966    21.603604    14.654618    15.480397 
  -12.412247    21.603661    14.647027    15.479451 
    9.809749    21.603221    14.641715    15.480427 
  0.59601495    21.603174    14.637496     15.48142 
  -5.0120455    21.603151    14.632218     15.48167 
    -30.1203    21.602927    14.625808     15.48331 
   2.8076511    21.601498     14.61946    15.487165 
   26.116031    21.600182    14.613655    15.491447 
   21.742742     21.59991    14.607842    15.498286 
   38.077333    21.600508    14.599378    15.503272 
  -27.443277     21.60263    14.589356    15.507058 
   24.183697    21.603653    14.579806     15.51008 
  -41.973762    21.605644    14.571841    15.512798 
   30.264718    21.605955    14.563495    15.516432 
  -31.164858    21.607478    14.556437    15.517988 
   42.851692    21.607754    14.550628    15.519155 
    33.54694    21.609743    14.544003    15.522467 
   37.699211    21.613075    14.537647    15.525558 
  -16.196851    21.617915    14.532527    15.528995 
   23.434825    21.622107    14.529285    15.532345 
  -1.5362297    21.627236    14.528422    15.537545 
   14.242622    21.632304    14.528492    15.540133 
   66.513093    21.637941    14.528932     15.54529 
    6.952459    21.646239    14.532133    15.549524 
  -15.681781    21.654815    14.534923    15.551898 
   30.949924    21.662764    14.537436    15.551254 
  -48.502609    21.671951    14.539679    15.551884 
   12.684641    21.679198    14.539593    15.552292 
   29.942522    21.686952    14.538453    15.552002 
  -25.669074    21.695904    14.536457    15.550901 
   56.080978    21.703829     14.53418    15.550097 
   4.5429788    21.713997    14.533318    15.548695 
  -15.731256    21.724347    14.532996    15.548768 
   6.9039225    21.734068    14.533067     15.54752 
   32.139638    21.744064    14.531633    15.547129 
  -24.503947    21.755347    14.532122    15.543832 
   38.217766    21.765649    14.532584     15.54036 
    11.86643     21.77748    14.531476    15.537677 
   32.349885    21.789786    14.530138    15.533375 
   11.393581    21.803386    14.529694    15.529354 
  -7.0891968    21.817441    14.527816    15.525146 
   76.957537    21.831213    14.525821    15.520037 
   6.7127728    21.848063    14.524718    15.514084 
  -31.470198    21.865182      14.5235     15.50749 
  -2.2025002    21.881042    14.520525    15.501973 
   24.060462    21.896814    14.519161    15.494548 
   20.092045    21.913548    14.518116    15.485969 
  -44.534614    21.931086    14.515063    15.478321 
  -70.758162    21.946842    14.509886    15.470433 
  -38.190889    21.959768    14.506657    15.465065 
   1.8202396    21.971167     14.50303    15.459961 
  -84.153061    21.982638    14.499302    15.453257 
   35.747283    21.990743    14.495781    15.447844 
   21.944647    22.000278    14.491353    15.443224 
  -34.198715    22.010691    14.486137    15.439175 
   -22.18294    22.019736    14.480663    15.434818 
   9.5594672    22.027894      14.4762      15.4324 
  -34.721938    22.036434     14.47078    15.430164 
  -5.4141936    22.043585     14.46689    15.427657 
  -34.450821     22.05052    14.462517    15.422618 
  -35.277535    22.056076    14.458222     15.41948 
  -11.719992    22.060222     14.45399    15.415325 
   -32.81289    22.063898    14.448872    15.411106 
   19.407751    22.066262    14.443064    15.407291 
  -14.981639    22.069403    14.435884    15.403858 
  -23.563224    22.071944    14.430137     15.40062 
   2.6192508    22.073543    14.425232    15.397908 
  -9.4252868    22.075246    14.422126    15.394768 
   11.330476    22.076572     14.42046    15.393928 
   6.6789036    22.078352    14.420512    15.392307 
   -2.929273    22.080399    14.420362    15.390357 
   46.506782    22.082328    14.418915    15.389535 
   5.0778793    22.086118    14.415371    15.388628 
   44.854203    22.090111    14.411755    15.387875 
  -13.125622    22.095898    14.406723    15.387863 
   13.602763     22.10116    14.401281    15.388636 
   19.573922    22.106967    14.396956    15.389289 
  -18.432991    22.113556    14.393629    15.390693 
  -35.597015    22.119408    14.390065    15.390628 
  -1.9952647    22.123836    14.388255    15.391125 
   17.774134    22.128184    14.386042    15.392593 
   48.364576    22.133243    14.383622    15.394147 
  -1.8018821    22.140237    14.381555    15.392379 
    14.88663    22.147158    14.379479    15.387727 
  -4.1481661    22.154675    14.377775    15.385267 
   26.994827    22.162027    14.375009     15.38306 
  -10.537273    22.170458    14.370983    15.382497 
  -56.066811    22.178467    14.367823    15.381958 
   17.616783    22.184234    14.363268    15.378359 
   4.9606485    22.190705    14.359384    15.376109 
  -6.8895681    22.197375    14.357552    15.375361 
   6.9844591     22.20377    14.354106    15.373545 
  -10.089136    22.210443    14.351175    15.369657 
   11.289024    22.216713    14.348252    15.367473 
  -14.721426    22.223435    14.345219    15.363771 
   22.814609    22.229568    14.341367    15.362261 
    30.42564    22.236613    14.337817    15.359168 
   40.856778    22.244876    14.334529    15.355656 
  -8.4580601    22.254773    14.332037    15.352499 
  -17.954564    22.264331    14.329966    15.349276 
   27.077965    22.273171    14.327113    15.344965 
  -18.269211    22.283095    14.325281    15.340585 
   3.4691406    22.292287    14.323988    15.335813 
   11.304041    22.301619    14.322836    15.330754 
   39.870598    22.311402    14.319683    15.323859 
    -18.0335     22.32278    14.317231    15.317086 
   38.130066    22.333437    14.313817    15.311511 
  -17.521878     22.34562      14.3121    15.306462 
  -21.392742    22.357101    14.310752    15.302051 
    29.34218    22.367726    14.310646    15.296414 
   41.146079    22.379526    14.312475    15.288959 
  -26.968835    22.392971    14.313263    15.281608 
    8.543024    22.405337    14.313909    15.274262 
  -51.820506    22.418045    14.314888    15.266609 
  -60.453718    22.428681    14.316397    15.259382 
  -34.364568    22.436898    14.317806    15.250744 
   15.390156     22.44374    14.317069    15.242846 
   44.694188    22.451199    14.316832    15.234864 
    25.69915    22.460444    14.315278    15.225184 
    -2.03042    22.470718    14.311605    15.217645 
  -2.3335071    22.480911     14.30776    15.210595 
  -56.578687     22.49101    14.302395    15.203739 
   13.875122    22.498847    14.299833    15.198075 
   -75.10159    22.507238    14.295632    15.194522 
   -22.91074    22.512625    14.291341    15.190689 
  -15.539541    22.517096    14.287007    15.186405 
  -32.631387    22.520945    14.281485    15.182569 
  -19.784067    22.523489    14.275359    15.177653 
   46.485965    22.525241    14.268388    15.173803 
  -25.373624    22.528853    14.260919    15.170651 
  -31.226687     22.53145    14.253281    15.167046 
   12.160487    22.532798     14.24641     15.16288 
   25.118951    22.534632     14.23976    15.156249 
  -24.682342    22.537471    14.232397    15.149444 
   -51.38633    22.539323    14.225981    15.143185 
   21.692748    22.539119        14.22    15.137305 
   10.525149    22.539784    14.213512    15.132505 
  -65.660291    22.540869    14.206977     15.12863 
  -14.494138    22.539327    14.201194    15.124711 
  -27.643548    22.537206    14.196968    15.119698 
   12.582369    22.533979    14.191187    15.114875 
   48.321792    22.531256    14.185666    15.112151 
  -27.676798    22.530465    14.182318    15.108205 
  -21.403433    22.528567    14.176905    15.107252 
   -7.011566    22.525813    14.169427    15.103843 
  -21.738504    22.522779    14.161828     15.10085 
  -27.517081    22.518875    14.155396    15.098483 
   14.067807    22.513871    14.151831    15.095371 
  -35.821382    22.509429    14.148903    15.092075 
   20.680187    22.503554    14.148686    15.086274 
  -34.494144    22.498506     14.14805     15.08149 
  -16.226902    22.492079    14.147168    15.077905 
  -34.126437    22.485003    14.145321     15.07716 
  -5.5199163    22.476561    14.143766    15.076956 
   9.0474548    22.467899    14.142167     15.07445 
   67.286469    22.459599    14.138902    15.071309 
   24.352403     22.45399    14.135104    15.067266 
   -7.672014    22.449355     14.12945    15.062247 
  -19.854809    22.444414    14.123048    15.057305 
   45.447944    22.438678    14.118377    15.052018 
  -52.255998     22.43476    14.114848    15.045969 
   8.9657806    22.428752    14.111107    15.040002 
  -33.588041    22.423102    14.107425    15.032604 
  -19.356968    22.416109    14.101991    15.025936 
   64.479591    22.408342    14.096233    15.019736 
  -19.523173    22.403154    14.091029    15.014153 
  -33.024996    22.397185     14.08466    15.007772 
   59.454642    22.389895    14.078429    15.000528 
  -25.684349    22.384983    14.071011    14.991168 
   41.222836    22.379043    14.064936    14.981251 
  -41.902358    22.374753    14.058211    14.973214 
  -1.8850781    22.368787    14.052406     14.96349 
  -4.7834279    22.362745    14.046704    14.954357 
   7.2199618    22.356512    14.041966    14.943648 
   59.804509    22.350567    14.034258    14.934494 
  -24.759275    22.347015    14.025477    14.926113 
   9.2316148    22.342473    14.016578    14.917762 
  -20.621833    22.338299    14.008319    14.911978 
   13.515388    22.333301    13.999954    14.906406 
 -0.85312069    22.328844    13.994781    14.902775 
   20.134366    22.324352    13.990743    14.899382 
   40.547511    22.320666     13.98643    14.896416 
  -44.099716    22.318601    13.982143    14.892069 
   35.137981    22.314773    13.979762    14.887853 
   63.001622     22.31235    13.978703    14.882672 
   48.107878    22.312447    13.978949    14.878304 
     -18.811    22.314469    13.979137    14.873781 
   6.8853541    22.315738     13.98108    14.869699 
   3.8031594    22.317282    13.981838     14.86614 
   10.635927    22.318979    13.982818    14.861663 
  -65.399066    22.321101    13.983558    14.857323 
  -29.201979    22.320607    13.983628    14.852619 
  -1.1794271    22.318945    13.983571     14.84974 
    31.75324    22.317236    13.981655    14.846702 
  -8.1001667    22.316797    13.980332    14.843903 
   24.557087    22.316034    13.979543    14.841212 
    11.16164    22.316253    13.978646    14.839045 
   25.015989    22.316918    13.975652    14.835222 
   21.542947    22.318585    13.972199     14.83318 
  -41.432104    22.321113    13.968967    14.828892 
  -21.554298    22.321984    13.965764    14.823238 
  -19.474776    22.321992     13.96256    14.817188 
   57.019129    22.321222    13.961894    14.811807 
   24.423131    22.322732    13.960678    14.806313 
  -47.161929    22.325219    13.957916    14.802164 
  -14.447381     22.32582    13.957072    14.796205 
   3.8754507    22.325843    13.956346    14.791506 
  -26.187455    22.326021    13.955907    14.784343 
  -20.178248    22.325152    13.954858    14.777432 
  -7.2171696    22.323475    13.954551    14.768429 
  -11.950868     22.32151    13.955401    14.757858 
   5.3114608    22.319066    13.956007    14.747787 
  -5.5668816    22.316835    13.957069    14.737786 
  -16.668661    22.314382    13.959096    14.726587 
  -19.201397    22.311261    13.960849    14.715838 
   17.917869    22.307373    13.960929    14.706056 
   77.959337    22.304201    13.962029    14.695491 
   16.381322    22.304148    13.962529    14.685426 
   51.899214     22.30475     13.96228    14.675954 
   17.054327    22.307427    13.961035     14.66451 
  -26.330083    22.310787    13.962855     14.65331 
  -26.719762    22.313094    13.966285    14.643704 
  -26.813152    22.314332    13.968174    14.634745 
   -6.473106    22.314498    13.970151    14.625027 
  -34.580817    22.314405    13.970755    14.613095 
   9.1128068    22.312928    13.971735    14.601324 
  -23.183868    22.311816    13.973421    14.590267 
   59.856006    22.309776    13.973911    14.578098 
  -14.785707    22.310131    13.974576    14.565462 
   38.507553    22.309894    13.972486    14.554158 
  -5.9910114    22.311198    13.970399    14.543097 
  -39.181024    22.312262    13.968953    14.534285 
   28.862316    22.311759    13.966263    14.527152 
   33.413706     22.31241    13.963004    14.521438 
   17.852133    22.314398    13.959335      14.5167 
   44.945779      22.3171    13.957369    14.513128 
   -22.97793      22.3216    13.956575    14.508431 
   26.975523     22.32518    13.955362    14.501868 
   5.1959215     22.32984    13.952436    14.494808 
  -63.012989    22.334707    13.952474    14.488929 
  -41.342821    22.337054    13.954981    14.482625 
  -25.211957    22.337747    13.957068    14.478076 
  -25.658599    22.337432    13.957923    14.474592 
  -12.149426    22.336091    13.960041    14.471327 
  -31.448121    22.334263    13.960161    14.467286 
   -41.74172    22.331178    13.959107    14.462627 
   -12.35197    22.326422     13.96045    14.458151 
  -42.823736    22.321173    13.961493    14.454191 
  -40.382069    22.314211    13.963067    14.448424 
  -11.458316    22.305633    13.966045    14.445974 
   8.8048856    22.296598    13.968329    14.445395 
  -22.858286    22.287914    13.969599    14.445557 
  -11.509286    22.278316    13.970702    14.447163 
   50.245964    22.268258    13.971506    14.448132 
  -38.172578    22.260209    13.971543    14.450124 
   4.9026115    22.250634    13.972905    14.454054 
   55.143462    22.241255    13.973878    14.457836 
   7.7278561    22.234081    13.974885    14.462883 
   7.2183285    22.227217     13.97518    14.467489 
   -9.870987    22.220641     13.97555    14.471607 
  -8.5508495    22.213671    13.977135    14.478179 
   8.6079372    22.206358    13.979087    14.485034 
   34.086379     22.19939    13.980758    14.490523 
  -34.424136    22.193785    13.982139    14.496326 
  -2.4818979    22.186803    13.985419    14.501764 
  -17.381194    22.179722    13.988117    14.507434 
  -27.203927    22.171946     13.99327    14.513784 
   5.5590368    22.163081    13.998766    14.519874 
    54.73824    22.154439    14.003972    14.525249 
   20.843807    22.147987     14.00667    14.529956 
  -1.2629388    22.142368    14.011336    14.535756 
  -3.1051452    22.136699    14.016985    14.539909 
  -6.3288318    22.130905    14.023502    14.542519 
   5.6660635    22.124859    14.029549    14.542897 
   18.862408    22.119039    14.034272    14.542511 
   62.782876    22.113973    14.038115    14.540729 
  -33.019325    22.111419    14.040685    14.538063 
   27.004863    22.107544    14.045109     14.53658 
    8.728131    22.104749    14.050859     14.53692 
   18.409418    22.102303    14.054777    14.538444 
  -7.6888297    22.100594      14.0562    14.540122 
  -30.896001    22.098577    14.059148    14.541287 
  -57.554444    22.095325    14.062073    14.540549 
     47.5648     22.08977    14.065371    14.539207 
  -6.9300432    22.086117    14.067846     14.53709 
  -10.116369    22.082188    14.070766    14.533976 
   4.8258934    22.077854    14.075006     14.53241 
  -2.2508297    22.073713    14.079529    14.529289 
  -57.015815    22.069482    14.082211    14.525525 
   -7.019521     22.06297     14.08664    14.522111 
  -24.349559    22.056177    14.091475    14.519351 
  -1.2285974    22.048411    14.097507    14.514617 
  -9.5673268    22.040595    14.102609    14.510188 
  -16.623545    22.032397     14.10658    14.504426 
  -5.8787635    22.023534    14.109163    14.499018 
  -12.173256    22.014435    14.111342    14.495798 
   37.602149     22.00485    14.115959    14.489966 
   -20.75985    21.996768    14.120062    14.485704 
   37.027976    21.987857    14.123746    14.483523 
   -9.228444    21.980426    14.127536    14.479144 
   -32.38995    21.972626    14.130753    14.472455 
 -0.58159904    21.963531    14.134306    14.464748 
   33.487755    21.954413    14.137981    14.457951 
   8.1025801    21.946634    14.140025    14.448094 
  -38.051358    21.939179    14.144334    14.438403 
   6.8312913    21.930202    14.148957    14.428077 
  -53.647699    21.921498    14.155307    14.418508 
  -21.181765    21.910648    14.160451      14.4098 
   26.374326    21.898951    14.162723    14.399371 
  -4.7046502    21.888309    14.165807    14.388392 
   45.120071    21.877479    14.170137    14.379132 
   35.235921    21.868454    14.175804    14.370396 
   20.713213    21.860838    14.180965    14.360557 
 -0.81951602     21.85405    14.185524     14.35106 
  -1.3696871     21.84723    14.188407    14.341794 
  -9.5917119    21.840355     14.19202    14.333022 
   41.024609    21.833097    14.196992    14.323285 
   8.3895221    21.827479    14.202478    14.313045 
   -12.04766    21.822197    14.208054    14.303972 
  -4.5475475    21.816433    14.212464    14.295395 
   3.8828433    21.810487    14.214689    14.288059 
   2.7727279    21.804697    14.218941    14.278763 
   32.837596    21.799017    14.223007    14.270681 
   12.066264    21.794651    14.226323    14.263564 
  -11.465372    21.790767    14.228463    14.257054 
   36.328545    21.786425    14.229936     14.24756 
    3.767073    21.783536    14.232548    14.237688 
   45.489101    21.780798    14.232365    14.226869 
  -38.484824    21.779879     14.23144    14.217889 
    45.21321    21.777421    14.230538    14.207879 
   9.8384865    21.776772     14.23004     14.19716 
   46.989292    21.776516    14.228593    14.187538 
  -24.462355    21.778139    14.224001    14.177034 
 -0.41057743    21.778784    14.218768    14.167584 
  -24.495594    21.779413    14.213867    14.158223 
  -46.322387    21.779062    14.207763    14.148941 
  -2.1484399    21.776858    14.205084    14.141166 
   10.779702    21.774568      14.2015    14.133471 
  -44.163826    21.772709    14.196706    14.125191 
   4.7579875    21.769083    14.192628    14.119171 
    36.35654    21.765648    14.189818    14.113041 
    9.058123    21.763667    14.186697    14.108133 
  -7.7155052    21.762049    14.184028     14.10505 
  -38.529792    21.760122    14.182376    14.101053 
  -30.505373    21.756654    14.181281    14.095694 
  -23.242013    21.751965    14.180279    14.091157 
   45.207997    21.746347     14.18016    14.085911 
   30.399397    21.742537    14.180192    14.079118 
   24.836576    21.739943    14.180301     14.07273 
   18.142996    21.738343    14.180497    14.068722 
   8.1148153    21.737468    14.181529    14.064955 
   1.8985357    21.736918    14.181211     14.06072 
  -10.809513    21.736444    14.178778    14.054543 
   39.934777    21.735537    14.176569    14.047793 
   64.359638    21.736228    14.174718    14.039913 
   71.787109    21.739493    14.173092    14.032771 
   -6.201043     21.74563    14.171934    14.026217 
   13.945119    21.751518    14.171671    14.019445 
   23.157364    21.757965     14.17048    14.012307 
  -24.255352    21.765338    14.169246    14.005778 
   39.698655     21.77174    14.168526    13.999243 
  -23.287804    21.779731    14.169703    13.992812 
  -12.763716     21.78679    14.170688    13.985899 
   16.667742    21.793338    14.171204    13.978929 
  -3.8654424    21.800553    14.172418    13.969247 
   24.168483    21.807614    14.175621    13.958396 
   19.532647    21.815641    14.178581    13.948815 
  -39.335652    21.824449    14.183083    13.937605 
  -30.040468    21.831685    14.190028    13.927657 
  -8.6246016    21.837718    14.197133    13.916509 
   -57.69503    21.843407    14.206503    13.907038 
    10.29634    21.846787    14.215494    13.897533 
  -29.192253     21.85058    14.224825    13.887853 
   41.192005    21.853205    14.234121    13.880598 
   24.322078    21.857477    14.241759    13.872983 
  -9.6219107    21.862723    14.250604    13.866276 
   21.704225    21.867583    14.261746    13.860744 
   27.570152    21.873312    14.274603    13.854972 
  -36.256906    21.880144    14.286121    13.851287 
  -18.717514    21.885525    14.298815    13.846088 
  -61.360027    21.890158    14.312205     13.84186 
  -21.486327    21.892336    14.322574    13.836372 
  -30.855634    21.893654    14.330291    13.829145 
   8.5197372    21.893739    14.337997    13.821482 
   19.056059    21.894164    14.344039    13.814367 
  -39.532776    21.895352     14.34869     13.80732 
   43.530408    21.894958    14.353638     13.79955 
  -3.9934098    21.896305    14.356442    13.791042 
   -45.27218    21.897493    14.360299    13.783809 
   20.673113     21.89687    14.364868    13.777839 
  -8.5546094    21.897074    14.368864    13.770927 
   31.331035    21.896935    14.371977    13.766553 
    3.914917     21.89805    14.373915    13.761455 
  -3.1468602    21.899321    14.375774    13.757837 
   70.168899    21.900467    14.377458    13.755685 
   36.365937    21.904419    14.380164    13.753474 
  -2.7234586    21.909826    14.383779    13.753977 
   23.475571    21.915124     14.38729    13.755929 
   30.204925    21.921361    14.391541    13.758245 
  -10.340024    21.928806    14.394213    13.759797 
  -25.702393    21.935838    14.398331    13.759799 
  -33.006218    21.941841    14.404296    13.759751 
   8.1242657    21.946525    14.408355    13.758747 
   44.617261    21.951533     14.41409    13.757876 
  -10.643906    21.958326    14.421132    13.754293 
  -6.3666299    21.964693    14.427368    13.748535 
  -30.189677    21.970805    14.433226    13.740522 
  -52.307433     21.97571    14.437744    13.732857 
   10.654755    21.978523    14.443273    13.725501 
  -45.724707    21.981762      14.4469    13.715788 
  -10.127764    21.983171     14.44931    13.706891 
  -16.252611    21.984176    14.452479    13.698087 
  -11.762314    21.984531    14.457396     13.69036 
   31.546519    21.984415    14.461224    13.681495 
   9.0203887    21.985561    14.462039     13.67127 
  -14.722012    21.987067    14.462181    13.661237 
   5.4263764    21.987985      14.4612    13.650468 
    25.20891     21.98912     14.46381     13.63908 
   32.491962    21.991264     14.46583    13.627996 
  -24.774283    21.994707    14.468038    13.616701 
   7.5914089    21.997159    14.468595    13.605251 
   31.329329    21.999914    14.468225    13.592944 
  -20.078453    22.003923    14.467369    13.582576 
  -12.194831    22.007129    14.468008    13.572106 
   -1.080134    22.009847    14.468987    13.562726 
  -81.953484    22.012521    14.469344    13.551949 
   24.581871    22.011918    14.468709    13.542505 
  -42.080089    22.012298    14.468514     13.53374 
  -31.716248    22.010994    14.465919    13.524241 
   27.573627    22.008422    14.463873    13.516379 
  -39.301899    22.006953    14.461198    13.510694 
   15.654978    22.003912    14.458035    13.505342 
   33.031787    22.001497     14.45403    13.501909 
  -10.462338    22.000404    14.451357    13.497871 
   -25.72882    21.998891    14.449562    13.495694 
  -13.815336     21.99635     14.44985    13.495005 
   8.7398928    21.993256    14.450803    13.494517 
 -0.68491272    21.990512    14.451212    13.494734 
  -7.3006445     21.98774    14.451033    13.495618 
  -4.0616526    21.984676    14.451569    13.497972 
   7.8726944     21.98145    14.448972    13.499622 
   34.635738    21.978539    14.446703    13.501114 
  -23.515079    21.977013    14.443066    13.502474 
   47.496846    21.974546      14.4384    13.503641 
  -8.0545797     21.97398    14.433672    13.503716 
   -20.73055    21.973091    14.428484    13.502836 
   42.655955    21.971373    14.421823    13.501466 
  -23.556442    21.971361    14.415662    13.498097 
   74.587986    21.970407    14.409862     13.49561 
   47.274019    21.972437    14.405123    13.492069 
   3.9333041    21.976357    14.399301    13.487968 
  -40.238336    21.980435    14.393593    13.482531 
   25.771712    21.982903    14.389691    13.478772 
  -52.410642    21.986402    14.386489    13.475048 
   18.228267    21.987805    14.383527    13.470197 
   28.462375    21.989937    14.379705    13.463997 
  -57.132308    21.993207    14.375494     13.45609 
  -27.999871    21.994192    14.369088    13.449184 
   3.9987206    21.994057    14.363862    13.442025 
   68.709013    21.994082    14.357827    13.435516 
   43.418042    21.996855    14.352325    13.430098 
  -3.9366607    22.001365     14.34517    13.424359 
    31.36013    22.005718    14.337684    13.422486 
   36.406179    22.011325    14.331316     13.42059 
  -2.1642722    22.018388    14.326578    13.418753 
   18.918604    22.025365    14.323299    13.416455 
  -74.623684    22.033098    14.317914    13.415409 
   58.216301    22.037847    14.313342    13.415361 
 -0.49285495    22.044924    14.309683    13.413782 
  -4.6205636    22.051981    14.305505    13.412715 
   -23.95174    22.058854    14.301901    13.410905 
   20.408707    22.064768    14.299164    13.407851 
  -2.4216402    22.071499    14.297083    13.404378 
  -33.917698    22.078133    14.293531    13.401337 
   14.566088     22.08341    14.290363    13.399274 
   32.755646     22.08927     14.28789    13.399369 
   40.818496     22.09644    14.285654    13.400953 
    10.71007    22.105243     14.28351    13.403705 
    30.75873    22.114474    14.281431    13.407341 
  -10.659959    22.124936     14.27924    13.409563 
   11.828941    22.134971    14.276819     13.41052 
  -1.1969204     22.14548    14.274445    13.410008 
  -1.3124005     22.15594    14.271563     13.40958 
   21.935181    22.166348    14.269427    13.410849 
  -37.066247    22.177634    14.266296    13.413739 
   17.874886    22.187437    14.263974    13.416784 
  -43.922372    22.197954    14.263681    13.422729 
   2.9247826    22.206715    14.263818    13.427871 
  -26.279944    22.215593    14.263704    13.434081 
   17.672518     22.22342    14.262568    13.439855 
   -9.301829    22.231953    14.260398    13.445314 
  -57.085808    22.240115    14.259545    13.449994 
   9.5272441    22.245993    14.257303    13.454461 
  -23.123407    22.252252    14.256989    13.459323 
  -32.390594    22.257586    14.257852    13.464547 
   50.199623    22.261625     14.25951    13.470573 
  -30.231217    22.267671    14.260839    13.476252 
  0.54187872    22.272509    14.261177    13.483307 
  -4.5340139    22.277368    14.260576    13.491285 
   32.669443    22.282045    14.261661    13.499272 
   -44.84581     22.28803    14.262176    13.507409 
    3.640164     22.29222    14.263973    13.516298 
   43.622956    22.296557    14.263149    13.526773 
   9.4521574    22.302638    14.262806    13.537533 
  -28.617302    22.309097    14.260846    13.546472 
   21.521355    22.314412    14.257812    13.556843 
   -27.14194    22.320587    14.254662    13.564499 
   35.378833    22.325677    14.250588    13.571325 
   23.569142    22.332181    14.244921    13.576615 
  -9.9002432    22.339629    14.240113     13.58162 
  -15.947546    22.346681    14.235813    13.586247 
   4.6554335    22.353094    14.230987    13.590428 
  -10.677392    22.359694    14.227121    13.596901 
   30.897443    22.365867    14.223508    13.603552 
  -44.162457    22.373276    14.219882     13.61043 
   14.621381    22.378918    14.215132    13.616547 
   10.379304    22.385145    14.211226    13.622228 
   21.203396    22.391787    14.208177    13.630585 
  -6.4911982    22.399278    14.206092    13.640516 
    2.107021    22.406508    14.205586     13.65235 
  -46.163886    22.413824    14.204682    13.664426 
  -16.626724    22.419292    14.204109    13.676902 
  -34.782126    22.424095    14.204178    13.687695 
   31.732333    22.427507    14.202636    13.698229 
  -35.383304    22.432189     14.20273    13.706476 
  -59.796524    22.435455    14.202242    13.711666 
    10.85163    22.436329    14.203247    13.717191 
   35.040116    22.437637      14.2041     13.72234 
  -61.027179    22.440347    14.205328    13.725872 
   1.9746702    22.440616    14.205711    13.728203 
  -1.0212902    22.440964    14.206188    13.730284 
   48.927065    22.441271    14.207801     13.73129 
  -59.990271    22.443535    14.207919     13.73109 
    13.97012    22.443399    14.208654    13.729944 
   24.646624    22.443822    14.208704    13.727561 
   27.263058    22.445231     14.20909    13.723308 
   19.985092    22.447731    14.207083    13.718939 
   46.630524     22.45103     14.20387    13.714906 
  -22.148898    22.456194    14.200803    13.710853 
  -39.898851    22.460473    14.196628    13.705385 
    4.974831    22.463155    14.193106    13.700515 
   48.691158    22.466036     14.18926    13.695691 
  -40.906396    22.470865    14.185403    13.690241 
   15.944206    22.474058    14.180515    13.683746 
  -7.3468383    22.477888    14.177024    13.678036 
  -59.707558    22.481425    14.173576    13.671895 
  -23.047832    22.482573     14.16979    13.667566 
   24.022541    22.482799    14.166056    13.663269 
  -14.234547    22.483987    14.162664    13.656176 
  -70.692487    22.484605    14.161725    13.649112 
  -19.458959    22.482395    14.160922    13.641393 
   11.110298    22.479407    14.161704    13.634146 
   50.911139    22.476863    14.162363      13.6286 
   9.3842494    22.476356    14.165259    13.621631 
  -3.1214284    22.476224    14.167829    13.613999 
   17.456503    22.475967    14.171394    13.604615 
  -58.271017    22.476408    14.173963    13.593277 
  -22.328994    22.474519     14.17847    13.583682 
  -6.0796989    22.471736    14.182473    13.573438 
  -16.556102    22.468711    14.185736    13.560892 
   32.250013    22.465023    14.189517    13.549733 
  -27.344406    22.462625    14.192715    13.539076 
   6.4401522    22.459133    14.196305    13.526417 
   4.8940196    22.455899    14.198869    13.513033 
  -12.450421     22.45286    14.201386    13.501452 
  -10.587412    22.449324    14.204295    13.490492 
   15.719958    22.445364    14.205688    13.478816 
   52.812157    22.442033    14.208942    13.468296 
   -29.63461    22.440814     14.21148    13.454666 
   -10.72448     22.43841    14.212692    13.440354 
  -50.780153    22.435577    14.213163    13.427366 
   44.380253    22.430713    14.214601    13.412502 
   34.622307    22.427624    14.216838    13.397847 
   24.554529     22.42592    14.218352    13.383952 
  -32.399313    22.425198    14.219998    13.370045 
   50.434797     22.42318    14.219713     13.35227 
   -20.38384     22.42318    14.217419    13.332966 
  -64.892214    22.422364    14.215193    13.310092 
  -19.296603    22.418953    14.211288    13.285259 
  -1.2245456    22.414769    14.205639    13.261284 
  -48.497609    22.410537     14.19877     13.23751 
  -6.8114127    22.404365    14.193052    13.213262 
  -1.9067934     22.39792    14.189034    13.188957 
   -2.037332    22.391399    14.185467    13.164707 
   18.650408    22.384796    14.182523    13.141053 
  -2.0261205     22.37894    14.179059    13.120176 
  -30.424291    22.373002    14.175455    13.099158 
  -23.891376    22.365848    14.171213    13.078638 
  -23.802362    22.357738    14.169376     13.05781 
    -15.2156    22.348676    14.165057    13.034866 
   -19.44051    22.339005    14.161056    13.011003 
   40.767435    22.328556    14.159392    12.985952 
  -52.248344    22.319738    14.158227    12.959269 
   14.030259    22.308831     14.15599    12.933092 
    2.371548    22.298484    14.156476    12.908876 
  -11.000213    22.288232     14.15773    12.885638 
  -43.023696    22.277541    14.159998    12.863845 
   2.9215915    22.265128    14.162849    12.842284 
   77.339237    22.252832    14.163517    12.820808 
   1.7415121     22.24363     14.16323    12.798842 
   18.826881    22.234498    14.162247    12.778835 
  -25.658426    22.226118    14.161513     12.75993 
    24.19366    22.216713    14.160435     12.74258 
   57.238339    22.208275    14.160088    12.724297 
   -23.30172    22.202126    14.158888    12.706675 
   20.556218    22.195046    14.157633     12.68927 
   32.449081    22.188787      14.1559    12.672273 
  -21.082665    22.183827    14.152748    12.657571 
  -11.676279    22.178023    14.149637     12.64413 
  -23.708736    22.171752    14.146446    12.630729 
   28.153649    22.164533    14.141442    12.618035 
    -64.1906    22.158441    14.137289    12.605896 
   54.585501     22.14978    14.132745    12.594932 
 0.063389414    22.143303    14.128488    12.585438 
   39.449322    22.136828      14.1255    12.577017 
  -17.886976    22.131932    14.123559    12.567848 
   22.316567     22.12632    14.122705    12.559537 
  -8.5492732      22.1216    14.121103    12.548995 
   35.375047    22.116539    14.119716    12.538429 
  -10.234473    22.112892    14.118847    12.528887 
   43.249524    22.108837     14.11733    12.519144 
  -6.5393366    22.106511    14.117484    12.508338 
  -45.912838    22.103923     14.11675      12.4976 
   -19.42096      22.0995    14.115648    12.488718 
   3.1160341    22.094299    14.114937    12.478637 
   27.209583    22.089223    14.113665     12.46781 
   25.594255    22.085235    14.114451    12.457357 
   3.5902639    22.082271    14.115157    12.448629 
   -21.03684    22.079451     14.11618     12.44181 
   42.988416    22.075789     14.11707    12.436248 
  -7.4494192    22.073847    14.116539    12.430188 
   7.5533336    22.071607    14.117274    12.423706 
   11.869619    22.069669    14.116836    12.418763 
   -11.11072    22.068205    14.116877    12.414278 
   14.332917    22.066297     14.11768     12.40832 
   3.2955642    22.064963    14.119016    12.402917 
   27.072673     22.06376     14.11802    12.398123 
   48.304527    22.063641    14.115791    12.393824 
   9.5005726    22.065453    14.113617    12.386709 
   5.0853724    22.067646    14.111507     12.37877 
  -23.912816    22.070042    14.110011    12.369335 
   5.5374701    22.071481     14.10914    12.361938 
  -2.2699452    22.073142    14.106958    12.356373 
  -40.278146    22.074712    14.106882    12.353332 
  -12.739757    22.074671    14.106631    12.348025 
   40.153138    22.074121    14.108201    12.343108 
   31.881387    22.075176    14.110169    12.337669 
   43.071827    22.077507    14.113719    12.332839 
  -43.319295    22.081561    14.115336    12.326171 
   6.5813952    22.083881    14.117495    12.321305 
   21.006907    22.086466    14.120148    12.316082 
   2.1788255     22.08989    14.123975    12.310844 
  -45.849856    22.093402    14.128357    12.306969 
  -28.198985    22.095079    14.133884    12.303824 
   0.5578809    22.095629    14.138674    12.301611 
   -44.29359    22.096201    14.144223    12.298023 
   50.802244    22.095001     14.15006    12.296676 
    40.77544    22.095833    14.154898    12.297657 
   34.719363    22.098296    14.160339    12.300098 
   39.326346    22.102148    14.164255    12.301899 
  -45.092629    22.107574    14.167446    12.302651 
  -19.804064    22.111195    14.171736    12.305029 
  -3.2794207    22.114024    14.175581     12.30501 
  -5.7923893    22.116722    14.177588    12.309052 
  -23.758228    22.119189    14.177208    12.312193 
   52.819784    22.120705    14.175652    12.313682 
  0.23131052    22.124334    14.171268    12.315419 
   42.447299    22.127972    14.167241    12.316446 
  -18.739795    22.133308    14.163343    12.317163 
    28.98114    22.137894    14.160484    12.318479 
   -8.669349     22.14364    14.158201    12.318456 
   4.6216519    22.149039    14.154182    12.315483 
   8.0963185    22.154622    14.148502    12.311162 
   -50.93782     22.16053    14.141507     12.30712 
  -37.801249      22.1644    14.136364    12.302737 
   30.054999    22.166758    14.131732    12.298115 
  -1.4006785    22.170318    14.125523    12.292974 
   -19.68328    22.173823    14.120889    12.287646 
   33.461447    22.176539    14.117006     12.28298 
  -40.707557    22.180595    14.115509    12.277895 
  -26.232159    22.183022    14.113136     12.27203 
   20.275481    22.184399    14.110929    12.267599 
   45.621872    22.186588    14.110174    12.265319 
   5.0702717    22.190602    14.107839    12.262952 
   28.626961    22.194818    14.104661    12.261613 
   5.1757258     22.20018    14.099877    12.259578 
  -20.937497    22.205748    14.096082    12.258262 
   40.771449    22.210479    14.090425    12.256742 
  -77.771843    22.216841     14.08461    12.253612 
   18.917072    22.220092    14.080178    12.249704 
   3.6284886      22.2241    14.073022    12.244917 
   33.800416    22.228253    14.065182     12.24043 
   3.2182541    22.233758    14.056747      12.2346 
  -8.8770871    22.239391    14.048027    12.227734 
   2.0855703     22.24467    14.042116    12.220161 
    49.05932    22.250032    14.037523    12.214401 
   13.878443    22.257356    14.033323    12.206385 
  -8.9650626    22.265236     14.02876    12.198878 
   27.808324    22.272756    14.024251    12.192291 
  -21.916305     22.28139    14.021228    12.184569 
  -38.581719    22.289146    14.015058    12.176201 
  -7.3216731    22.295359    14.008927    12.168102 
  -5.5395117     22.30128     14.00219    12.157763 
  -19.445116    22.306979    13.995558    12.147679 
  -23.330334      22.3119    13.988644    12.135489 
   49.654599    22.315887    13.982199     12.12397 
   50.715343    22.321861    13.976031    12.112721 
   42.968537    22.329864    13.968487    12.099583 
  -40.957992    22.339585    13.961197    12.087273 
    15.28607    22.347668     13.95337    12.077661 
  -11.815472    22.356363    13.944298    12.069163 
   13.998795    22.364585    13.937059    12.059296 
  -7.3025385    22.373366    13.930645    12.049239 
   -29.43125    22.381856    13.923293    12.038343 
   15.596239    22.389169    13.918611    12.028714 
  -15.401126    22.397105    13.913906    12.018433 
   23.333484    22.404425    13.907665    12.006619 
  -2.2942421    22.412679    13.901897    11.994741 
  -39.983029    22.420841    13.897268    11.982705 
   30.935568    22.427403    13.893428    11.971396 
  -30.325148    22.435203    13.889477    11.960934 
   6.7669407     22.44179     13.88459    11.950565 
   -17.59174    22.448647    13.881734    11.941408 
  -22.290305    22.454801    13.878385    11.933537 
   89.514622    22.460064    13.875699    11.926721 
   3.7754412    22.468907     13.87322    11.920934 
   32.469801      22.4779    13.869233    11.916041 
   5.6304028    22.488193    13.865027    11.909462 
  -35.633652    22.498711     13.86226    11.903111 
    -10.1449    22.507804    13.859181    11.896382 
   26.594224     22.51649    13.857103     11.89042 
  -51.346773    22.526241     13.85676    11.885656 
  -49.027025    22.533938    13.857341    11.880232 
  -33.642755    22.539673    13.856722    11.874326 
  -15.220716    22.544063    13.856098    11.868067 
   20.723993    22.547844    13.857095    11.863461 
  -85.701359    22.552454    13.857567    11.857814 
   12.845821    22.553636    13.859277    11.853747 
   86.210908    22.555332    13.859805    11.849479 
  -8.1390668    22.560476    13.860756     11.84344 
   4.2382905    22.565295    13.861729    11.837594 
  -61.595434    22.570283     13.86433    11.833581 
    9.796605    22.572807    13.866415    11.831691 
  -21.810209    22.575724    13.868715    11.829554 
  -12.060403    22.577768    13.868947    11.826159 
   17.380338    22.579329     13.86823    11.823151 
  -21.973605    22.581586    13.867155    11.821528 
  -33.324781    22.582963    13.865683    11.820414 
   9.8792574    22.583008     13.86235    11.819583 
    29.08876    22.583448    13.857621    11.818345 
   61.364846    22.585051    13.854508    11.814746 
  -24.497049    22.589109    13.849274    11.812891 
  -38.694885    22.592187    13.843096    11.812605 
   38.886211    22.593718    13.836403    11.810856 
   -1.765827    22.596803     13.82836    11.808618 
  -41.457461    22.599819    13.820597    11.804979 
  -7.4936287    22.601175    13.816058    11.802098 
  -1.0450159    22.602233    13.811529    11.798334 
   18.282207    22.603248    13.807541    11.796394 
  -1.9300823    22.604994    13.802538    11.794147 
  -4.1498049    22.606664    13.797002     11.79303 
   40.560889    22.608167    13.790368    11.793238 
  -34.536214    22.611293    13.784551    11.792381 
   9.9292581    22.613037    13.779065    11.789193 
   24.918726    22.615179     13.77297    11.785912 
 -0.42788024    22.618317    13.765153    11.781513 
  -30.028595    22.621439    13.756943     11.77839 
   60.298198    22.623359    13.748467    11.775618 
  -37.974149    22.627691    13.740006    11.772852 
   30.308371    22.630504    13.730671    11.770975 
   -25.23933    22.634529    13.723312    11.770059 
   31.318048    22.637545    13.716915    11.767349 
  -35.318638    22.641813    13.711595    11.765124 
  -19.335148    22.644669     13.70707    11.763554 
  -16.957216    22.646751    13.701664    11.762949 
  -15.579949    22.648155    13.695421    11.762572 
  0.96210255    22.648936    13.688748     11.75977 
    30.46844    22.649755      13.6795    11.758414 
  0.96627912    22.651794    13.671603    11.757643 
  -47.493132     22.65387    13.663764    11.756277 
   43.080169    22.654047    13.657061    11.755625 
    8.204342    22.655947    13.652031    11.754948 
   17.063165    22.658176    13.648764    11.754701 
   20.901733    22.661087    13.647049    11.753584 
   42.485763    22.664834    13.647493    11.751737 
  -72.338071     22.67028    13.647229    11.746999 
   69.510298    22.672833    13.647381    11.743637 
   -27.17529    22.678166    13.648535    11.740692 
   45.155044    22.682413    13.650318    11.737531 
   49.118483    22.688465    13.652397    11.734933 
  -20.995524    22.696482    13.656889    11.732337 
  -48.632611     22.70366    13.661882    11.730589 
   4.2548038    22.708892    13.664818    11.728113 
  -41.508525    22.714294    13.668076    11.727755 
  -16.585784    22.718036    13.672014    11.727381 
   10.180357    22.721115    13.674978    11.730174 
  -8.1107989      22.7246    13.678666    11.732729 
   45.310866    22.727762    13.683158    11.735525 
  -33.926551    22.732735    13.686741    11.736894 
   4.0851444    22.736352    13.688992    11.737491 
  -3.5875663    22.740132    13.690903    11.740831 
   31.979732    22.743769    13.691456    11.744576 
   2.5865826    22.748684    13.691854    11.748189 
   14.144098    22.753704    13.693714    11.751001 
  -32.234536    22.759289    13.694739    11.753523 
   5.4266222    22.763584    13.693912    11.755615 
  -38.848939    22.768097    13.694603    11.758378 
   22.645458    22.771056    13.697316    11.761207 
  -34.003008     22.77492    13.700187    11.761466 
   28.035595    22.777425    13.702593    11.761041 
    34.57475    22.781051    13.703139    11.760459 
  -35.644089    22.786059    13.704103    11.758889 
   10.709376    22.789642    13.705044    11.757864 
   9.8449626    22.793654    13.704646    11.756045 
   20.314163    22.798059    13.704189    11.753076 
  -14.494236    22.803277    13.704169    11.749601 
  -8.1219864    22.807915    13.703745    11.748348 
  -16.785719    22.812228    13.703766    11.746991 
  -39.133609     22.81587    13.704259    11.746707 
   24.457193    22.817946    13.706632    11.746376 
  -6.2224938    22.821001     13.70836     11.74469 
   20.937079    22.823807    13.710109    11.743772 
   20.864024     22.82745    13.711097    11.743754 
   37.623463    22.831928    13.714236      11.7425 
  -34.204469    22.837911    13.717202    11.741894 
   29.092452    22.842525    13.720607    11.740691 
   3.7875074    22.848303    13.724582    11.740631 
   23.448652    22.854233     13.72771     11.74157 
    39.22941    22.861101    13.731619    11.743352 
   14.352217    22.869538     13.73564    11.743713 
  -7.5558085    22.878549    13.740896    11.743019 
   17.944501    22.887258    13.748701     11.74387 
   35.376767    22.896684    13.757162    11.746187 
  -28.894416    22.907526    13.765322    11.748112 
  -13.765487    22.917211    13.773742    11.749098 
  -14.718463    22.926347    13.780021    11.749396 
   32.817625    22.934893    13.786353     11.74815 
   15.320318    22.944752    13.791769    11.747234 
  -50.833802    22.955224    13.799573    11.746238 
   5.5698052    22.963663    13.806589    11.743989 
  -15.816999    22.972324     13.81338    11.743675 
   4.5012772    22.980353    13.824398    11.742193 
   79.788961    22.988562    13.835291    11.741071 
  -22.402931    22.999962    13.846541    11.743549 
  -4.5642041    23.010467    13.855612    11.745436 
   16.948946    23.020788    13.863596    11.747258 
   16.069483    23.031788    13.871584    11.750807 
   42.770706     23.04343    13.882086    11.754535 
  -17.115072    23.056784    13.891556    11.756668 
  -22.012919    23.069452    13.900861    11.755739 
   17.479313     23.08124    13.911548    11.756235 
   2.6193492    23.093728    13.919992    11.756467 
     7.22972     23.10632    13.928416    11.758446 
  -53.583056    23.119201    13.937131    11.760698 
  -4.0936833    23.129939     13.94793    11.762094 
  -5.3605373    23.140513    13.957409    11.763792 
   6.2533856    23.150873    13.967632    11.764341 
  -62.339097    23.161483    13.979665    11.765222 
  -23.619206    23.169599     13.99184    11.763748 
 0.087445306    23.176771    14.003351    11.761654 
  -98.765205    23.183946    14.015298    11.760348 
   7.5534181     23.18717    14.027878     11.75846 
    8.647666    23.190697    14.039437     11.75659 
   62.673283    23.194569    14.049344    11.755193 
  -31.261794    23.200949    14.060774     11.75196 
   28.882412    23.206078    14.073178    11.747265 
   21.771626    23.212362    14.084155    11.743631 
  -58.398733    23.219517    14.092613    11.740607 
   101.80856    23.224336    14.101764    11.738907 
  -2.6522755    23.233228    14.108538    11.738674 
  -41.385644    23.242013    14.114903    11.740066 
  -63.977113    23.249143    14.121708    11.742839 
  -38.559885    23.253714    14.127052    11.744635 
  -48.072824    23.256742    14.134348    11.747059 
   13.814196    23.257848    14.141086    11.748492 
  -7.3711501    23.259506    14.147871    11.752448 
   13.945881     23.26087    14.154845    11.755722 
  -10.905727    23.262791    14.161446    11.758379 
   45.500961    23.264276    14.168842    11.761279 
  -12.916268    23.267581     14.17753    11.764704 
   21.457515    23.270369    14.186379    11.769801 
   19.924864    23.274016    14.194323    11.772893 
  -9.9401319    23.278459    14.202349    11.774492 
  -18.455318    23.282505    14.211302    11.774383 
  -12.335478    23.285813    14.217868    11.773618 
   76.236552    23.288627    14.225215    11.771539 
   29.856879    23.294491    14.233901     11.76818 
   8.6848961    23.301549    14.240466    11.765073 
   32.042275    23.308955    14.247744    11.759925 
   37.652098    23.317642    14.253715    11.753734 
  -59.349211    23.327835    14.258041    11.747878 
  -9.2878692    23.335655    14.264121    11.740737 
  -52.701353    23.343102    14.271564    11.734218 
  -13.052358    23.348442    14.279237    11.726504 
  -14.137598     23.35326    14.287987    11.718558 
  -40.407014    23.357512    14.296525    11.707451 
  -29.354412    23.360148    14.304687    11.696567 
   3.7676498     23.36161    14.312135    11.685179 
   2.8140889    23.363222    14.319461    11.674692 
   29.625106    23.364947     14.32566    11.663674 
   9.2005766    23.367857    14.332922    11.653063 
  -55.425928    23.371135    14.339184    11.642593 
  -17.448385    23.372196    14.345646    11.630565 
  -16.125357    23.372559    14.353777    11.619517 
  -20.676998    23.372277    14.362207    11.610282 
  -37.897302    23.371168    14.367959    11.600903 
   14.759959    23.368543    14.375017    11.592035 
  -32.618965    23.366508    14.382567    11.585344 
    21.58095    23.363169    14.389668    11.577578 
  -1.8821956    23.360693    14.396244    11.572192 
   12.458656    23.358141    14.401844    11.565469 
  -88.575618    23.356088    14.409412    11.557596 
  -8.2185328    23.350492     14.41529    11.547326 
   -26.69189    23.344568    14.421924    11.535651 
  -10.098265    23.337575    14.425398    11.522504 
  -20.953888    23.330179    14.426857     11.51133 
  -27.262968    23.321944    14.425837    11.501705 
  -3.6891775    23.312619    14.425013    11.492557 
   56.723648    23.303146    14.427642    11.484873 
  -17.044499    23.295943    14.429318    11.478608 
   11.199158    23.288057    14.432335     11.46979 
  -10.063892     23.28062    14.436065    11.460739 
   53.694609     23.27278    14.439527     11.45291 
   36.516422    23.267087    14.441187    11.445768 
   27.388425    23.262856     14.44381    11.436305 
   38.858328     23.25972    14.446364    11.428283 
   22.416271    23.258138    14.450336    11.419736 
  -52.630341    23.257453    14.452893    11.414479 
  -8.4487207    23.254662    14.452573    11.409013 
   77.902018    23.251534    14.452185    11.404277 
  -73.370471    23.251522    14.453047    11.400031 
   4.3014839    23.248575    14.453422    11.394455 
  -7.4086715      23.2458    14.452517    11.387905 
   16.752023    23.242729     14.45348    11.380749 
   30.277407    23.240328    14.452815    11.373102 
-0.059971418    23.239137    14.452025    11.365329 
   43.796121    23.237945    14.451742     11.35812 
   40.010574    23.238504    14.449886    11.350031 
   30.361157    23.240664    14.447457    11.342876 
  -50.765013    23.244038    14.446784    11.335305 
  -30.959534    23.245382    14.445488    11.327305 
  -12.068287    23.245487     14.44439    11.318186 
   -8.440372     23.24511    14.443182    11.309148 
  -19.233521    23.244394      14.4436    11.297389 
    37.81312     23.24291    14.446554    11.288923 
  -25.328768    23.242938    14.447377    11.281156 
   43.746134    23.241953    14.446758    11.272459 
   14.276917    23.242718     14.44669    11.262281 
  -2.2190611    23.244053    14.447535    11.252052 
   -16.47955      23.2453    14.448441    11.241671 
  -64.329991    23.245888    14.448941    11.233151 
  -5.1976832    23.243903    14.448896    11.222933 
    10.89782     23.24171    14.449081    11.214245 
  -7.8675466    23.239953    14.449875    11.205435 
  -2.7079476     23.23788    14.451325    11.196587 
   24.095539      23.2357    14.452819    11.187757 
  -6.0925652    23.234484    14.452643    11.178269 
   26.208742    23.233023    14.453102    11.170194 
  0.74370669    23.232612    14.455197    11.160336 
  -41.089862    23.232229    14.456394    11.152542 
  -8.5530488    23.230204    14.457028    11.144194 
  -43.766036    23.227836    14.458076    11.138531 
  -14.507617    23.223717    14.456972     11.13394 
   41.540974    23.219019    14.453927    11.129159 
  -13.950825    23.215982    14.449104     11.12494 
  -12.484338    23.212386     14.44261    11.122224 
  0.57993467    23.208292    14.439167     11.12041 
  -18.458415     23.20422    14.436322    11.120954 
  -13.898215    23.199411    14.433619    11.121679 
   53.350192    23.194045    14.431624    11.120996 
   49.005992    23.190814    14.429873    11.119731 
   18.813523    23.189542    14.427988    11.116183 
   25.260767    23.189023    14.424644    11.115407 
   50.903081    23.189515    14.422506    11.116829 
    1.208272    23.192043    14.419369    11.119637 
  -34.537532    23.194619    14.415377    11.120029 
   32.059261    23.195813    14.410488    11.119427 
  -54.674426     23.19829    14.403578     11.11824 
   24.824099     23.19858    14.396117    11.116236 
  -3.9463581    23.199863    14.388855    11.113342 
   44.329602    23.200988    14.381371    11.111198 
   -11.02645    23.203886    14.373183    11.109232 
   21.560277    23.206344    14.366255    11.106721 
   40.660662    23.209663    14.360034    11.104531 
   39.171026    23.214609     14.35581    11.102331 
   20.172742    23.221122    14.351674    11.100112 
   9.4171825    23.228442    14.349039    11.097075 
   31.354969    23.236138    14.347778    11.094778 
   3.8717573    23.245089    14.347808    11.093292 
  -18.234775    23.254194    14.346938    11.094513 
   28.050035    23.262571    14.347937    11.096848 
    -48.9278    23.272069    14.349417    11.099564 
   55.029361     23.27961    14.350782    11.103133 
   24.445045    23.289352    14.353001    11.105555 
  -56.247527    23.300072    14.356541     11.10962 
  -58.960074    23.308542    14.359451    11.114432 
  -11.108801    23.314654    14.361255    11.120428 
  -11.531318    23.320321    14.362809    11.128975 
  -55.771853    23.325527    14.364351    11.138842 
   -20.46491    23.328502    14.366726     11.14813 
  -7.1694291    23.330659    14.370762    11.155955 
   11.474239    23.332529    14.372131    11.162792 
   5.7417857    23.334858    14.373706    11.168487 
   57.930021    23.337416     14.37432    11.175425 
   43.423858    23.342292    14.373829    11.180626 
   16.284273    23.348905    14.374039    11.187654 
  -41.669327    23.356169     14.37294    11.195749 
  0.51473448    23.361766    14.373907    11.203269 
  -47.792143    23.367384    14.373861    11.210226 
   42.076095     23.37109    14.374579    11.217878 
   17.008197    23.376479    14.377389    11.227469 
   8.9455088    23.382549    14.380284    11.235967 
   20.993932    23.388976    14.381511    11.246224 
   15.288031    23.396243    14.383432    11.256902 
   60.760723    23.404122    14.386535    11.267385 
   50.624248    23.414431    14.389571    11.280044 
  -2.9062598    23.426765    14.392552    11.291653 
  -24.307538    23.438982    14.396073     11.30393 
  0.31654565    23.450228    14.400273    11.315233 
  -45.498715    23.461486     14.40536    11.326229 
[...]
  -76.985876    27.917771    17.329616    8.1262923 
  -8.3533615    27.912114    17.322816    8.1240658 
    53.97965    27.906122    17.314259    8.1215606 
    81.45313     27.90229    17.304379    8.1182883 
   64.434602    27.901716    17.295101    8.1146899 
  -4.4895522    27.903719    17.286007    8.1096198 
   27.356197    27.905543    17.276624    8.1042281 
  -49.085682    27.908461    17.266803      8.09872 
  -90.616491    27.909415    17.257436    8.0929918 
  -7.6325937    27.906745    17.248458    8.0875409 
  -46.222335     27.90377    17.240411    8.0819813 
   34.216488    27.898946      17.2343    8.0758635 
   94.024112     27.89549    17.228552    8.0690764 
   66.835309    27.895795    17.223579    8.0621043 
  -88.551844    27.898774    17.219007    8.0556505 
    46.66215     27.89821    17.215268     8.050013 
   60.478056    27.899514    17.213722    8.0451372 
     -59.219    27.903236     17.21286    8.0403014 
    15.43397    27.904589    17.210025    8.0352447 
  -75.630926     27.90656     17.20898    8.0291249 
  -32.885008    27.905506     17.21154     8.023183 
   74.542171    27.903136    17.216975    8.0171879 
   88.007385    27.903748    17.222812    8.0115389 
    68.33489     27.90788    17.230169    8.0048958 
  -11.362902    27.914745    17.236887    7.9990244 
  -183.43732    27.921157    17.244658    7.9928342 
   -116.2213     27.92023    17.250386    7.9881452 
  -20.106929    27.914655     17.25791    7.9821076 
   39.415216    27.908275    17.265421    7.9748303 
   50.132585    27.903472    17.273344    7.9661775 
   62.015636    27.900675     17.28078     7.959538 
   69.313663    27.900358    17.288373    7.9542342 
   76.024143    27.902813     17.29408    7.9478997 
   30.289102     27.90831    17.297729    7.9405819 
  -145.51522    27.915018    17.298936    7.9347617 
  -108.81144    27.915905    17.300818     7.930891 
  -1.3684649     27.91244    17.302151    7.9267658 
  -7.8967546     27.90892    17.302845    7.9226594 
  -20.523253    27.905085     17.30249    7.9195704 
   41.936824    27.900428     17.30049    7.9137204 
   27.166263    27.897449    17.298398     7.908815 
   71.199352    27.895557    17.296083    7.9032193 
   199.81113    27.896512    17.295098    7.8973529 
  -12.411858     27.90546    17.293135    7.8913072 
  -122.16055    27.913912    17.292277     7.885942 
  -146.20768    27.917477    17.291411    7.8792882 
  -150.92628    27.915193    17.289335    7.8745319 
  -52.950941    27.906873    17.290052     7.869847 
   79.279878    27.896435    17.291312    7.8655409 
   135.86412    27.889168    17.292071    7.8606488 
    154.8187    27.887335    17.292246    7.8531768 
   152.23844    27.891695    17.292479    7.8478998 
   106.18841    27.902145    17.291641    7.8416316 
  -169.72869    27.916842    17.290362    7.8369118 
    -207.345    27.924751    17.290323    7.8314524 
  -173.97295    27.924365     17.29231    7.8258251 
  -70.031484     27.91702    17.293711    7.8232722 
  -44.489352    27.906874    17.297485    7.8226586 
   63.482343    27.894949    17.302693    7.8229276 
   184.14965    27.885563    17.307728    7.8230771 
   156.35225    27.883543    17.312256    7.8241531 
   204.57868    27.887777    17.315446     7.825592 
    108.1154    27.900194    17.319885    7.8298614 
   -59.38298    27.916935    17.322336    7.8339219 
  -319.44633    27.931302    17.326461    7.8384292 
  -270.86698     27.93289    17.330238    7.8419862 
  -194.02501    27.923644    17.335075    7.8444428 
  -74.728306    27.906637    17.338827    7.8497129 
   145.12506    27.886641    17.341486    7.8534249 
   221.27446    27.872449     17.34124    7.8576786 
   253.99084    27.867109    17.342849    7.8628832 
   273.27109    27.871929    17.342541     7.865427 
   124.50146    27.887679    17.341538    7.8666763 
  -97.543012    27.908409    17.339562    7.8657431 
  -260.56829    27.925237    17.335197    7.8633181 
  -371.68818    27.931643    17.331659    7.8624861 
  -186.51451    27.923181    17.328424    7.8639438 
   18.423477    27.907259    17.325175    7.8673164 
   120.68539    27.892074    17.321599    7.8687647 
   197.28082    27.881716     17.31779    7.8701886 
   225.68846    27.879249    17.311132    7.8701788 
   184.74297     27.88581    17.304352    7.8715715 
  -14.258023     27.89976    17.297703    7.8738674 
  -114.47602    27.913141     17.29277    7.8764572 
  -140.09696    27.921942    17.288217    7.8789906 
  -169.49597    27.925139     17.28455     7.879421 
  -103.23085    27.921556    17.281845    7.8817038 
  -32.503659    27.913845    17.278963    7.8824063 
   26.183685    27.904833    17.275749    7.8827901 
   153.21511    27.896868    17.273168    7.8812587 
   101.66192    27.895032    17.271903    7.8807003 
   116.13537    27.897263    17.271552    7.8792141 
   116.96776    27.904139    17.273215    7.8784082 
  -65.096635    27.915693    17.274557    7.8788369 
  -165.38094    27.924644    17.274478    7.8797102 
  -272.40744    27.926979    17.274579    7.8825611 
  -99.799578    27.918419    17.273611    7.8860759 
  -62.141318    27.905866    17.271564     7.887093 
     98.6242    27.890827    17.269288     7.888755 
   269.79464    27.879734     17.26321     7.891328 
   257.25229    27.879432    17.256839    7.8944588 
    162.9524    27.889421    17.250455    7.8967392 
     94.7149    27.905927    17.244512    7.8979909 
  -202.34301    27.926222    17.235147    7.9003043 
  -297.45644    27.938424    17.224526    7.9016853 
  -332.61638    27.938727    17.213639     7.901466 
  -165.78554    27.925725    17.202484    7.9014694 
    88.78866    27.906093    17.190958    7.9001522 
   265.86081    27.890011    17.179225    7.9000765 
   266.67324    27.884564    17.166314    7.9000068 
   182.41787    27.889784    17.153896    7.8978064 
   134.52235    27.902301    17.141972    7.8946512 
  -72.119303    27.920198    17.132866    7.8920061 
  -312.48336    27.935211    17.123573     7.888889 
  -316.40238    27.937725    17.113613    7.8877028 
  -206.49413    27.927582    17.102531     7.887206 
  -24.425901     27.90918    17.091796    7.8836341 
   204.99998      27.8898    17.082214    7.8788289 
   301.07363    27.878621    17.071945    7.8737559 
   247.15185    27.879484    17.062604    7.8685395 
   211.04491    27.890234    17.052656    7.8623096 
   17.098678    27.909425     17.04519     7.854114 
  -189.71294    27.929301    17.037746    7.8444733 
  -286.07608    27.941588    17.031268    7.8380808 
  -359.68192    27.942431     17.02658    7.8342544 
  -168.83181    27.928888    17.026315     7.830749 
   107.07312    27.908591    17.027818    7.8283831 
   214.13076    27.892577    17.030675    7.8266767 
   272.27754    27.885129    17.035131    7.8247521 
   235.75283    27.888571    17.039239    7.8228494 
   112.04881    27.901444    17.043472    7.8219408 
  0.44791353    27.918798    17.049019    7.8223376 
   -264.1699    27.936171    17.055291    7.8224564 
  -266.61543    27.942976    17.060907    7.8229601 
  -270.76724    27.939117    17.066059    7.8235572 
   -92.21256    27.924428    17.070862    7.8245722 
   88.585984     27.90605    17.076906    7.8252966 
   207.86779    27.891215    17.081325    7.8276597 
   261.58362    27.884695    17.087541    7.8306261 
   239.41734    27.888638    17.092054    7.8333159 
   67.698968    27.902158    17.094854    7.8368172 
  -84.511467    27.918386    17.098897    7.8401448 
   -279.9886    27.931234    17.105008    7.8419539 
  -323.63569    27.932882    17.107466     7.843821 
  -150.23631    27.921584    17.109542    7.8442017 
   64.638106    27.904278    17.108121    7.8437356 
   197.42283    27.889556    17.106952    7.8425357 
   246.92965    27.882732    17.105942    7.8392962 
   156.87186    27.885785    17.105528    7.8352899 
   111.10426    27.895112    17.105525    7.8318267 
   4.8092381    27.908884     17.10425    7.8276435 
  -73.485933    27.922848    17.104334    7.8239982 
  -244.54718    27.933873    17.103487    7.8220783 
  -364.36362    27.935116    17.103078    7.8189909 
  -161.98324    27.921784    17.101734    7.8178069 
   196.28291    27.901973    17.101366    7.8146564 
   177.57431    27.890013    17.099604    7.8101078 
   177.21949    27.885157    17.098861    7.8054009 
   137.68305    27.887389    17.097159    7.8028279 
   79.788365    27.895128    17.095647    7.8019126 
   51.188433    27.906059    17.093506    7.8020596 
  -119.28867    27.919037    17.091332    7.8028697 
   -173.3955    27.927244    17.089759    7.8039939 
  -154.81763    27.928515    17.089368    7.8058514 
  -197.58545    27.923594     17.08802    7.8082022 
  -48.626128    27.910769    17.084251    7.8131946 
   175.90797    27.895998    17.083168    7.8179017 
   225.98608    27.888265    17.083288     7.825014 
   148.90823     27.88957    17.084768     7.830473 
   69.158489    27.896832     17.08666    7.8363667 
  -21.144373    27.906861    17.087034    7.8399014 
  -152.26881    27.916043    17.087139    7.8421141 
  -132.61311    27.919135    17.087755    7.8420441 
  -26.609306    27.916922    17.088857    7.8416093 
  -109.90279    27.913645    17.092492    7.8409481 
  -3.3083245    27.905972    17.097779     7.841516 
   31.411914    27.898166    17.104894    7.8409373 
   119.29456    27.891617    17.113012    7.8406264 
   211.89232     27.88984    17.121881    7.8415335 
   43.021303    27.896538    17.129252    7.8421951 
  -45.378218    27.904958    17.137311    7.8443594 
  -189.95346    27.911562    17.143727    7.8491661 
  -66.659158    27.910568    17.150993    7.8533628 
   20.832379    27.906907    17.158294    7.8578566 
   65.323378     27.90408    17.166489    7.8624227 
  -26.668252    27.903866    17.175237    7.8657939 
  -17.520231    27.902585    17.186925    7.8690757 
   37.224986    27.900604    17.197254     7.870746 
   111.87915    27.900111    17.207355    7.8727441 
   18.052311    27.904093     17.21558    7.8741581 
  -38.189599    27.908798    17.223172    7.8773499 
  -201.73417    27.911975    17.233899    7.8795006 
  -95.286075    27.907083    17.241611    7.8810074 
   56.094087    27.898379    17.250622     7.883284 
   110.48514    27.891919    17.260851    7.8835807 
   93.414594    27.889878    17.271103    7.8866357 
  -4.6720779    27.891574    17.281641     7.891975 
   30.006529    27.893083    17.290429    7.8990532 
   126.88277    27.895792     17.29848    7.9078278 
   27.171045    27.903577    17.306309    7.9158422 
  -267.59548    27.912449    17.314846    7.9223373 
  -220.77507    27.910616    17.325496    7.9277515 
  -26.721173    27.899953    17.334312    7.9298705 
   32.697755    27.888221    17.342965    7.9335217 
   200.66719    27.877796    17.350764    7.9370039 
   215.62806    27.875399    17.358104    7.9397625 
   193.85554    27.881626    17.365355    7.9398647 
   60.963598    27.895608    17.371137     7.941011 
  -149.96528    27.912028    17.376406    7.9429496 
  -244.35912     27.92245     17.38175    7.9469438 
   -281.2828    27.923097    17.386552    7.9518089 
  -151.53113    27.912493     17.39099    7.9549981 
   58.344568    27.895828    17.396754    7.9572132 
    143.4466    27.881496    17.403566    7.9586014 
   212.85263    27.872903     17.41046    7.9583573 
   284.04576    27.872823    17.416792    7.9579477 
   204.79235    27.884106    17.421186    7.9541713 
   40.991131     27.90358    17.425842    7.9497884 
  -271.18602    27.924693    17.431872    7.9419983 
  -446.64127     27.93496     17.43564    7.9352944 
  -223.38494     27.92736    17.436034    7.9292009 
   19.072971    27.910825    17.432921    7.9197596 
   139.94641    27.895054    17.429135    7.9095006 
   120.25312    27.884879    17.426771    7.8974667 
   125.85266    27.879516    17.424275    7.8835988 
   212.89286    27.879186    17.420683     7.867732 
   177.92988    27.887372    17.417588    7.8516556 
   99.884813    27.902675    17.414859    7.8343774 
  -121.37813    27.921973    17.411242    7.8188868 
  -401.54143    27.936417    17.407427    7.8035643 
  -349.61103    27.934798    17.401795     7.789298 
  -66.904994    27.919196    17.395351    7.7772976 
   71.782468    27.900917    17.389994    7.7639598 
   185.81263    27.885509     17.38502    7.7505786 
   208.00656    27.877534     17.38237     7.736098 
   279.27408    27.877879    17.382512    7.7211262 
   196.94976    27.889395    17.383442    7.7055748 
   93.995479    27.908789    17.386297    7.6899672 
  -173.37008    27.931943    17.389732    7.6769213 
  -568.47873    27.948162    17.391616    7.6651628 
  -403.33664    27.941642    17.392716    7.6521966 
  -33.770541    27.918989    17.390968    7.6406018 
   195.20871    27.894984    17.389604     7.627857 
   234.31108    27.878788    17.386314    7.6139856 
   227.24003    27.871965      17.3835    7.6001521 
    185.0155    27.874231    17.381164    7.5875211 
   214.95049    27.883898    17.378738    7.5762526 
     58.9164    27.902162    17.376841    7.5642793 
  -286.92909    27.922784    17.376877     7.551954 
  -351.54219    27.931928    17.377479      7.54057 
  -318.57717     27.92701    17.378944    7.5287931 
  -117.56067     27.90935    17.380489    7.5194514 
   142.34409    27.886987    17.382184    7.5098217 
   242.29569    27.870317    17.385142    7.5010547 
    291.5847     27.86334    17.386505    7.4962763 
   289.62516    27.868026    17.387534    7.4924323 
   191.73383    27.884297    17.388988    7.4884829 
  -34.003148    27.908237    17.391968    7.4843907 
  -359.68698    27.930818    17.393245    7.4795556 
  -409.85961     27.93901    17.394309    7.4731774 
  -267.88907    27.930809    17.392352    7.4692011 
  -6.6266519    27.911891    17.387933    7.4674651 
   128.49552    27.892709    17.382942    7.4640446 
    289.3423    27.878667    17.375285    7.4598756 
   226.54203    27.876198    17.367557    7.4555406 
   149.34904    27.882791    17.361744    7.4531279 
  -7.9745673    27.895358    17.356948    7.4510552 
  -76.843628    27.907605    17.351736     7.449877 
  -158.56149     27.91678    17.346639      7.44954 
  -234.32453    27.919611    17.344044    7.4507974 
  -142.04269     27.91307    17.340259    7.4531297 
   16.661698    27.900847    17.334519    7.4549449 
   165.51696     27.88929    17.328981    7.4570292 
    229.0048    27.884355    17.322537    7.4582594 
   88.464789    27.888579    17.315572     7.459567 
   33.669023    27.896342    17.308805    7.4615203 
  -106.82102    27.905452    17.303616    7.4648215 
  -23.985171    27.910288     17.30052     7.469312 
  -113.95405    27.914166    17.296728    7.4746476 
  -108.83587    27.913485    17.295557    7.4803235 
 -0.24152776    27.908451    17.294021    7.4853889 
   63.822078    27.903407    17.294621    7.4898059 
   98.422447    27.900916    17.298377    7.4949896 
   17.696993    27.902362    17.303346    7.4992919 
   25.340147    27.904516    17.307003    7.5040338 
  -81.389874    27.907683    17.314068    7.5071847 
  -63.729366    27.907595    17.319572    7.5087951 
  -1.6364637    27.904958    17.324477    7.5107291 
   60.322336    27.902255    17.327066    7.5108252 
   63.540381    27.901965    17.330367    7.5112175 
  -26.997045    27.904217    17.332663    7.5132753 
  -24.129801    27.905389    17.334692    7.5147093 
  -60.059399    27.905595    17.335871    7.5147343 
  -57.461332      27.9034    17.333735     7.515544 
   76.941068    27.898906    17.332683    7.5167177 
   42.827927    27.897489    17.330098    7.5180007 
   20.067613    27.897786    17.331018    7.5210046 
  -48.974356    27.898885    17.330582    7.5247471 
   50.242749    27.898025    17.330273    7.5312758 
   129.82725    27.899175    17.329662    7.5388304 
   87.068864    27.905518    17.329854    7.5470618 
  -84.950114    27.915344    17.332068    7.5579991 
  -218.62089    27.921772    17.335892    7.5683751 
  -103.50077    27.919455    17.340822    7.5801598 
   -47.70936    27.912998    17.347112     7.592404 
   22.934344    27.904633    17.353427    7.6026907 
   120.54681    27.897185    17.359789    7.6111875 
   161.81209    27.894559    17.364944     7.620389 
   95.388202    27.898405    17.369052    7.6292369 
   39.081653    27.906067    17.373189    7.6384304 
  -87.960934    27.915292    17.378025    7.6471892 
  -182.24984    27.920999    17.380925    7.6540177 
  -133.11548    27.919415    17.385381    7.6622499 
  -137.47676    27.912507    17.392062    7.6685735 
    8.111842      27.9001    17.398813    7.6749076 
   165.57836    27.888018    17.408727    7.6805434 
   162.61365    27.882559      17.4191    7.6860546 
   93.543241    27.883604     17.42764     7.693879 
   69.403637    27.888391    17.435993    7.7001216 
   111.06608    27.895954    17.445068    7.7070187 
  -71.714385    27.907959    17.455086    7.7135136 
  -200.93008    27.917096    17.464939    7.7196825 
  -158.24246    27.918196    17.477256     7.724948 
   -79.28369    27.912967    17.490299    7.7322043 
  -13.534231    27.904565    17.506642     7.738768 
   109.24983    27.895623    17.523389    7.7496955 
   78.904681     27.89105    17.540167    7.7612234 
   70.654578    27.889634    17.555216    7.7716913 
    97.17617    27.891044    17.572496    7.7814875 
   26.295942    27.896341    17.591096    7.7916274 
   8.1820881     27.90269    17.608921    7.8016789 
  -26.289175    27.909366    17.627482    7.8095117 
  -114.60833     27.91499    17.647279    7.8158189 
  -121.04114     27.91603    17.665635    7.8196285 
  -43.797589    27.912229    17.684959    7.8226805 
  -13.503674    27.906675    17.705009    7.8249989 
  -3.5177515    27.900582    17.727495     7.828139 
   114.41564    27.894348     17.74783    7.8280861 
   81.345967     27.89269    17.766473    7.8293352 
   123.74942    27.894286    17.783431    7.8320505 
    34.92636    27.900832    17.799056    7.8343403 
  -138.20205    27.908775     17.81133    7.8373051 
  -110.84819    27.911191    17.821986    7.8405677 
  -46.552231    27.909172    17.830489    7.8433741 
   -33.09897    27.905291    17.837817    7.8450238 
  -3.2762298    27.900086     17.84616     7.848618 
    155.3304     27.89475    17.853822    7.8530264 
   166.81971    27.895628     17.86068    7.8567382 
   105.53822    27.903178    17.867578    7.8595654 
   20.896111    27.914949    17.873668    7.8615122 
  -24.473575    27.927557    17.878621    7.8622252 
ERROR on proc 0: Bond atoms 5 6 missing on proc 0 at step 32450 (../neigh_bond.cpp:65)
--------------------------------------------------------------------------
MPI_ABORT was invoked on rank 0 in communicator MPI_COMM_WORLD 
with errorcode 1.

NOTE: invoking MPI_ABORT causes Open MPI to kill all MPI processes.
You may or may not see output from other processes, depending on
exactly when Open MPI kills them.
--------------------------------------------------------------------------
--------------------------------------------------------------------------
mpirun has exited due to process rank 0 with PID 8087 on
node n0097.savio2 exiting improperly. There are two reasons this could occur:

1. this process did not call "init" before exiting, but others in
the job did. This can cause a job to hang indefinitely while it waits
for all processes to call "init". By rule, if one process calls "init",
then ALL processes must call "init" prior to termination.

2. this process called "init", but exited without calling "finalize".
By rule, all processes that call "init" MUST call "finalize" prior to
exiting or it will be considered an "abnormal termination"

This may have caused other processes in the application to be
terminated by signals sent by mpirun (as reported here).
--------------------------------------------------------------------------
