LAMMPS (17 Nov 2016)
Reading data file ...
  orthogonal box = (0 0 0) to (60 30 30)
  2 by 1 by 2 MPI processor grid
  reading atoms ...
  8887 atoms
  scanning bonds ...
  1 = max bonds/atom
  reading bonds ...
  9 bonds
Finding 1-2 1-3 1-4 neighbors ...
 Special bond factors lj:   0          0          0         
 Special bond factors coul: 0          0          0         
  2 = max # of 1-2 neighbors
  2 = max # of 1-3 neighbors
  4 = max # of 1-4 neighbors
  6 = max # of special neighbors
10 atoms in group polymer
1 atoms in group first
Neighbor list info ...
  1 neighbor list requests
  update every 1 steps, delay 10 steps, check yes
  max neighbors/atom: 2000, page size: 100000
  master list distance cutoff = 3.3
  ghost atom cutoff = 3.3
  binsize = 1.65, bins = 37 19 19
Setting up Verlet run ...
  Unit style    : lj
  Current step  : 0
  Time step     : 0.02
Memory usage per processor = 4.13948 Mbytes
v_ftotal c_com[1] c_com[2] c_com[3] 
   26.786285         17.5           15           15 
   19.976667    17.501361    15.003346    15.011499 
  -31.911086    17.503522    15.006084     15.02087 
  -53.384121    17.504406    15.006189    15.027413 
   42.495675    17.503155    15.007351    15.032411 
   23.229034    17.503603    15.008687    15.038911 
   29.587132    17.504981    15.010345    15.048228 
   10.567705    17.507542    15.010733    15.057655 
   28.561349    17.510526    15.010927     15.06731 
  -26.285312    17.514652    15.012783    15.074858 
  -32.757596    17.517727    15.015886    15.082326 
  -24.830195    17.519492    15.019449    15.090512 
   47.239203    17.520263    15.024417    15.097635 
  -25.497208    17.522924    15.028464    15.105539 
  -8.9533877    17.524566    15.032401    15.114561 
   11.951974    17.525848    15.037614    15.121265 
  -47.182023     17.52761    15.041578    15.129661 
   19.512151    17.527483    15.044999    15.136522 
  -4.5220362    17.528138    15.049829    15.142982 
   18.239422    17.528611    15.052967    15.149675 
  -11.424863    17.529814    15.054413    15.158473 
  -10.227209     17.53056    15.054598    15.165976 
   45.172134    17.530897    15.056183    15.173927 
  -46.604065     17.53304    15.056412    15.184007 
  -5.4728594     17.53332    15.056157     15.19365 
  -36.870348    17.533381     15.05499    15.202904 
  -15.604865    17.531967    15.053595    15.212332 
  -41.329763    17.529928    15.054923      15.2204 
  -16.711589    17.526237    15.059229    15.229354 
  -20.815349    17.521877    15.060417    15.238479 
  -21.784611    17.516684    15.061875    15.246625 
   39.705599     17.51062     15.06346    15.254311 
   30.016541    17.506144    15.063356    15.262132 
  -26.722978    17.502869    15.061275     15.27256 
    53.32313    17.498525    15.058522    15.282019 
  -24.279617    17.496314    15.056317    15.291572 
  -4.8457472    17.493132     15.05515    15.299968 
   3.1880709    17.489756    15.056112    15.308401 
  -15.927266    17.486507    15.060068    15.315639 
  0.38634045    17.482621    15.064295    15.323822 
  -32.096895    17.478751    15.068324    15.330338 
   7.1583845    17.473597    15.070801    15.335876 
     43.8878    17.468729    15.073673    15.342016 
  -17.964092    17.465617    15.076668    15.348331 
   32.487718    17.461786    15.081008    15.354198 
   -27.94868    17.459255    15.085511    15.359307 
   28.832336    17.455606    15.088536    15.363147 
   23.973628     17.45311    15.090499    15.368332 
  -17.622635    17.451573    15.092502    15.372234 
   -13.57259    17.449331    15.093585     15.37627 
  -11.958315    17.446546    15.093101    15.381438 
   11.248242    17.443283    15.092741    15.386958 
   9.0219319     17.44047    15.092548    15.392096 
   30.422769    17.438017    15.092094    15.397545 
   71.705649    17.436782    15.090965    15.403438 
   1.4737441    17.438415    15.088914    15.408597 
  -1.5436852    17.440106     15.08672    15.414968 
    2.107207    17.441736    15.086217    15.422546 
   45.939085    17.443451    15.084695      15.4294 
  -12.372243    17.447002    15.081361    15.435603 
    5.217851    17.450059    15.078107    15.440939 
  -25.569709    17.453325    15.075603    15.445678 
   34.794592    17.455568    15.075255    15.446644 
  -30.680704    17.459203    15.074778    15.447793 
 -0.15883794     17.46161     15.07368    15.449932 
  -38.395631    17.464011    15.073185    15.452302 
  -40.325356    17.464876    15.073805    15.454246 
   16.955692    17.464129    15.073204    15.455507 
   23.688888    17.464059    15.074017    15.457885 
  -2.8451012    17.464937    15.073252    15.462191 
   31.574559    17.465701     15.06975    15.467186 
  -23.904913    17.467728    15.066599    15.471544 
  -25.015853    17.468799    15.064058    15.477766 
  -12.757028     17.46887    15.062476    15.484547 
  -10.830736     17.46843    15.063327    15.490449 
  -44.944078    17.467557    15.063545    15.497519 
   26.665789    17.464886    15.063883     15.50482 
   -4.534977    17.463282    15.063822     15.50977 
   36.748911    17.461496    15.062146     15.51351 
  -48.900587     17.46118    15.059979    15.515422 
  -10.433563    17.458908    15.056346    15.518837 
-0.077831297    17.456219    15.053309    15.521718 
   38.229089    17.453527    15.049694    15.522293 
   8.2537538    17.452364    15.046248    15.523422 
    -12.7269    17.451531    15.042628    15.524816 
   45.923553    17.450189    15.038575    15.527077 
   43.492138    17.450684    15.033772    15.530588 
    4.582203    17.452919    15.029629    15.532158 
   5.4824033    17.455337    15.026829    15.533173 
 -0.23087273    17.457974    15.023863    15.533558 
  -23.738758    17.460602    15.022288    15.536919 
   12.672802    17.462281     15.02037    15.540965 
   13.452629    17.464466    15.016183    15.543499 
   41.530886    17.467189    15.009706    15.544379 
   64.524591    17.471574    15.002883    15.543916 
  -4.6512094     17.47854    14.995159    15.544249 
   62.498871     17.48532    14.985115     15.54429 
   66.742041    17.494599    14.974138    15.545549 
   3.3069665    17.506548     14.96116    15.547503 
   18.089309     17.51863    14.946512    15.549293 
   -3.350293    17.531435      14.9344    15.552527 
   27.306096    17.544106    14.922436    15.555468 
   17.539404     17.55787    14.907901    15.555252 
  -7.1262297    17.572335    14.893213    15.555138 
  -2.6203219    17.586515    14.879003     15.55468 
  -48.181833     17.60059    14.865415    15.553788 
   42.534609    17.612737     14.84892    15.553346 
  -45.985363    17.626587    14.832376    15.552802 
   36.309232    17.638596    14.815555    15.549666 
  -30.337484    17.652059    14.800067    15.546466 
  -33.177054    17.664307    14.786504     15.54322 
  -16.249218    17.675229    14.772382    15.539626 
   56.961665      17.6855    14.761103    15.538284 
   43.271045     17.69805    14.751139    15.535301 
  -37.033823    17.712331    14.740536    15.534924 
  -12.586396    17.725131    14.727865    15.535944 
  -32.564047    17.737427    14.714951      15.5356 
   -4.393646    17.748421    14.700661    15.535724 
    22.66579    17.759238    14.688027    15.536439 
  -21.665766    17.770963    14.675852    15.535066 
   -13.42771    17.781821    14.663631    15.534151 
  -30.340441    17.792141    14.652478    15.531429 
  -6.3445501    17.801248     14.64275    15.528384 
   74.865559    17.810102    14.633426    15.525038 
   40.615486     17.82195    14.625587    15.519862 
  -85.774016    17.835422    14.617002    15.514984 
    20.17919    17.845464    14.608526    15.509872 
  -22.779236    17.856312    14.600839     15.50304 
  -45.304861     17.86625    14.593783    15.495343 
   -33.35833    17.874375    14.586338    15.489515 
   7.5809689    17.881166    14.577842    15.482549 
   58.984712    17.888261    14.571388    15.475358 
   7.0736163    17.897714    14.565984    15.467742 
  -38.088527    17.907451    14.559291    15.459699 
    28.32386    17.915664    14.552519    15.449779 
   45.838967     17.92501    14.547969     15.44118 
   5.1660708     17.93619    14.545777    15.434878 
   7.6427499    17.947576    14.542296    15.429753 
  -8.8363239    17.959268    14.539252    15.425965 
  -17.828018    17.970606    14.536839    15.425188 
  -3.2387237    17.981232    14.535558     15.42345 
 -0.78334679    17.991727    14.533401    15.421248 
   33.534393    18.002192    14.532105    15.419558 
   88.730256    18.013998    14.529971    15.419843 
   5.7597936    18.029353    14.528591    15.420232 
   7.6361577    18.044938    14.526711    15.421134 
   7.5785198    18.060829    14.525782    15.421581 
   21.228493    18.077023    14.524999    15.420392 
  -47.442555    18.094066     14.52589    15.417744 
  -52.452381    18.109212    14.528659    15.413396 
  -30.907854    18.122259    14.532265    15.407614 
  -27.810868     18.13407    14.534499    15.402772 
  -85.688895    18.144769    14.538768    15.396864 
  -1.6160695     18.15204    14.543681     15.39157 
  -39.918559    18.159247    14.547697    15.385937 
   -1.220598    18.164856     14.54975    15.380786 
  -16.023465    18.170417    14.552906    15.377059 
  -24.544911    18.175337    14.556573    15.372677 
   31.790863    18.179275    14.560593    15.369082 
   7.3107174    18.184485    14.565438     15.36476 
   19.374394    18.189987     14.56899    15.358306 
  -34.826255    18.196264     14.57322    15.352075 
   25.864261    18.201149    14.580007    15.343169 
   41.995454    18.207067    14.588134    15.334758 
   31.010125    18.214666    14.596608      15.3247 
  -9.1759705    18.223505    14.604249     15.31487 
   30.108793    18.231977    14.612436    15.306011 
  -48.739962    18.241653    14.619431    15.296644 
  -39.976382    18.249379    14.625984    15.287407 
   14.146571    18.255507    14.634023    15.279805 
  -33.359787      18.2622    14.643598     15.27069 
  -27.227206     18.26756    14.656197    15.261639 
 -0.85614338    18.271829    14.669424    15.253589 
   28.903982    18.276065    14.682079    15.244094 
   52.252972    18.281457    14.693513     15.23409 
    17.36169    18.288939    14.704545    15.223637 
   -35.79749    18.297116    14.715287    15.213714 
  -2.1477979     18.30386     14.72522    15.206251 
  -8.7029535    18.310519    14.735272    15.201072 
  -7.9542434    18.316829    14.745047    15.197673 
  -46.179043    18.322822    14.754158    15.192982 
  -11.813788    18.326967     14.76138    15.190055 
   4.7361577     18.33064    14.769206    15.185668 
   29.260342    18.334502     14.77684    15.181598 
   33.114138    18.339534    14.783027    15.176388 
  -3.9402818    18.345891    14.791102    15.171501 
   -32.06923    18.352091    14.800729    15.167215 
   18.704304    18.357007    14.811598    15.163526 
  -44.240991    18.362672    14.823151    15.159309 
   12.795989    18.366567    14.835246    15.153363 
   42.889976    18.370975    14.848332    15.144948 
   25.388352    18.377097    14.861087    15.138708 
  -70.345219    18.384235    14.873413    15.134418 
  -48.356322     18.38856    14.885343    15.131985 
  -29.812088     18.39095    14.895835    15.128332 
   6.8138483    18.392148    14.905437    15.125623 
  -6.0373863    18.393618     14.91597    15.121818 
  -25.986653    18.394847     14.92758    15.118544 
   30.783891    18.395036    14.939161     15.11406 
   9.8250548    18.396456    14.952438    15.109696 
  -29.067163     18.39827    14.963416    15.105557 
   -19.95463    18.398921    14.974605    15.105006 
  -46.631466    18.398774    14.985134    15.102072 
   4.8172591    18.396761     14.99637     15.10031 
  -12.961504    18.394941    15.006547    15.098482 
  -28.302625    18.392603    15.014886     15.09851 
   16.283915    18.389133    15.021508    15.099101 
  -38.089427    18.386314    15.029596    15.098472 
  -13.566242    18.381971    15.039143    15.097811 
   31.767981    18.377086    15.049071    15.095697 
  -21.979373    18.373471    15.057943    15.096154 
   21.984771    18.368977    15.068912    15.094634 
   17.054601    18.365363    15.078873    15.094114 
  -31.483442    18.362431    15.088845    15.095737 
  -9.3078318    18.358239    15.096002    15.097283 
  -47.862796    18.353676     15.10286      15.0982 
   7.8043688    18.347197    15.111109    15.098622 
   13.564188    18.341031    15.117582    15.096374 
   18.682409    18.335408     15.12231    15.093862 
  -16.154352    18.330531    15.125765    15.093366 
   -4.545696    18.325009    15.130968    15.094275 
   9.4526932    18.319305    15.137597    15.094063 
 -0.54476708    18.313978    15.143134    15.094539 
  -41.460539     18.30863    15.148535    15.096729 
  -14.912885    18.301624    15.152193    15.097853 
  -10.814197    18.294021    15.154585    15.099344 
   2.3469827    18.285986    15.156598    15.100643 
    12.01084    18.278044    15.157879    15.102053 
   10.871456    18.270583    15.161836    15.099953 
  -45.530948    18.263557    15.166513    15.098062 
   17.495861    18.254709    15.170858    15.096635 
  -34.835481    18.246561    15.175518    15.096959 
  -26.518372     18.23702    15.180398    15.098327 
  -23.738532    18.226419    15.184955    15.099795 
  -22.069079    18.214867    15.188615    15.101002 
   11.102699    18.202433    15.191186    15.102369 
  -8.1683874    18.190443    15.192665    15.103184 
   55.964865    18.178126    15.193115    15.102263 
   27.797465    18.168048    15.194489    15.102971 
   33.671561    18.159082    15.194369    15.104709 
  -17.894778    18.151462    15.194258    15.106441 
   51.340839    18.143127    15.193196    15.107972 
  -23.242553    18.136845    15.193004    15.109898 
  -35.528998    18.129634     15.19657    15.110699 
   2.0461554    18.121002    15.200174    15.110856 
  -24.855152    18.112451     15.20359    15.111104 
    93.06435    18.102906    15.207269    15.112278 
   20.947843    18.097084    15.211688    15.112236 
   31.953816      18.0921    15.216157    15.112136 
  -11.636417    18.088394    15.219797    15.109581 
  -60.927242    18.084222    15.224258    15.107697 
   11.490273    18.077613    15.227733    15.107613 
  -3.9663638    18.071464      15.2324     15.10719 
  -37.368989    18.065156    15.236019    15.107501 
   68.649918    18.057354    15.241014    15.106293 
  -37.421227    18.052297    15.247607    15.105513 
   16.823219    18.045744    15.254356    15.104465 
   23.504473    18.039864    15.260926    15.104365 
  -18.753552    18.034923       15.267    15.103066 
  -6.8235007    18.029233    15.271634    15.102805 
   24.102661     18.02327    15.277557    15.102999 
   -10.15093     18.01827    15.282043    15.101134 
   34.582137    18.012865    15.286829    15.096623 
  -23.507528    18.008843    15.290994    15.093121 
   11.762478    18.003881     15.29156    15.088046 
   3.6777215    17.999389    15.290637    15.082219 
  -21.245646    17.995044    15.290895    15.074699 
   79.756552     17.98985    15.291886     15.06947 
   10.964127    17.987846    15.293442    15.064183 
   46.402984     17.98628     15.29206    15.059635 
  -14.134677     17.98657    15.288341    15.054705 
   8.2121471    17.986295    15.284346     15.05183 
  -7.7617219    17.986349    15.282635    15.050932 
     -9.3261    17.986092    15.282882    15.050018 
   54.522404    17.985462    15.283452    15.048948 
   57.112642    17.987013     15.28308    15.048805 
    48.16255    17.990848    15.280852    15.049694 
  -23.196463     17.99661    15.276748    15.050029 
  -7.0022058    18.001444    15.272742    15.053708 
  -30.807383    18.005998    15.269186    15.058559 
   4.8630442     18.00932    15.265035    15.063938 
   12.923699    18.012836    15.263024    15.070435 
  -57.957195    18.016869     15.26116    15.077078 
  0.53443575    18.018584    15.258123    15.085555 
   13.510433    18.020321    15.256669    15.092154 
   17.282622    18.022597    15.254998    15.100502 
  -13.679597    18.025565    15.253794    15.109426 
  -9.9807107    18.027986    15.250219    15.118222 
  -7.7361626    18.030008    15.247738    15.126727 
  -39.252004     18.03172    15.244847    15.131914 
    24.87435    18.031862     15.24042    15.135727 
  -26.180803    18.032999    15.235046     15.13881 
   29.982697    18.033088      15.2286    15.143716 
  -80.743525    18.034378    15.221332    15.148429 
   -20.34112    18.032437    15.211644    15.153193 
  -20.371094    18.029683    15.199562    15.160787 
   -23.99214    18.026113    15.186774    15.165492 
   23.162501    18.021585    15.172343    15.170387 
  -88.116464    18.017982     15.15788     15.17571 
   18.242406    18.010855    15.145087    15.180319 
   -8.413182    18.004458    15.131742    15.186516 
  -34.617021    17.997724    15.120901    15.193911 
    12.63353    17.989606     15.10904    15.202947 
  -12.379549    17.981992    15.098813    15.211066 
   7.2924207    17.973884    15.090237    15.217851 
  -45.613384    17.966067    15.082354    15.225511 
   20.396915    17.956426    15.073493    15.233557 
  -1.2178607    17.947601    15.064416    15.239582 
   8.3294555    17.938727    15.056775    15.247217 
   23.997836    17.930186    15.049374     15.25518 
   24.404871    17.922605    15.042099    15.263175 
   60.653291       17.916    15.033569    15.271803 
   85.171629    17.911822    15.026332     15.28022 
   7.6007786     17.91105    15.019314    15.288149 
     6.56222    17.910582      15.0126    15.297807 
  -22.407181    17.910377    15.007955    15.307575 
  -15.134967    17.909276    15.003876    15.315224 
  -8.0329434    17.907569    15.000669    15.323284 
  -33.873062    17.905541    14.999314    15.329829 
   73.537871    17.902157    14.997597    15.337022 
 -0.99259945    17.901716    14.995086     15.34374 
   8.1506972    17.901234    14.991907    15.347609 
   6.4501079    17.901079    14.988641    15.350691 
   44.654893    17.901182    14.985597    15.355145 
  -0.6484131    17.903071    14.984538    15.359746 
  -2.3563236    17.904934    14.985292    15.366907 
   48.238337    17.906702    14.986741    15.373508 
   47.143841    17.910401    14.989054    15.381428 
   -2.395466    17.915985    14.991508    15.391518 
  -51.200776    17.921473    14.992492    15.401086 
   4.9729593    17.924913    14.994431     15.41057 
   49.260796    17.928552    14.996145    15.419412 
  -71.933675    17.934161    14.998312    15.428214 
   37.308867    17.936894    15.001297    15.436765 
  -6.7699801    17.941118    15.001121    15.445153 
  -6.9166004    17.945072    15.001361    15.453758 
  -93.705092    17.948749    15.003141    15.461419 
   33.078728    17.948678    15.006074      15.4697 
  -20.623976     17.94993    15.008716    15.477232 
   3.6423457    17.950357    15.012159    15.483845 
  -57.319514    17.950929    15.014002    15.490274 
  -7.5752333    17.949209    15.015362    15.495347 
   27.867145    17.947186    15.016807    15.499969 
   14.873899    17.946278     15.01602    15.506919 
   17.108657    17.945964    15.014508    15.513647 
  -2.5709455    17.946335    15.012999    15.522143 
  -20.673759    17.946603    15.009914    15.531285 
   7.3360137    17.946045    15.007896    15.541124 
   41.280711    17.945779    15.005769    15.550593 
  -10.136321    17.947165    15.006482    15.559328 
  -14.408297    17.948145    15.006409    15.566203 
   -21.34702    17.948549    15.005977    15.574445 
  -8.6610543    17.948099     15.00438     15.58323 
   34.823024    17.947303    15.000985    15.593134 
  -28.333907      17.9479    14.997137    15.603314 
  -35.652206    17.947363    14.992366    15.614107 
   31.742085      17.9454    14.989789    15.625903 
   21.428416    17.944707      14.9883    15.636436 
   -24.63346    17.944871    14.986544    15.646035 
  -50.241195     17.94405    14.984885    15.656985 
    -24.7595    17.941219    14.984729     15.66737 
  -46.223235    17.937397    14.986479    15.676999 
   5.2461234    17.931727    14.989603    15.685009 
   41.094858    17.926266    14.991947    15.691956 
   15.301287     17.92245    14.994635    15.698803 
  -34.096524    17.919245    14.998066    15.703963 
  -3.4228556    17.914677    15.003455    15.709368 
   59.798699    17.909971    15.009067     15.71246 
  -15.710066    17.907658    15.012859    15.716838 
  -81.379284    17.904716    15.014887    15.718584 
  -17.988453    17.898519     15.01782    15.719914 
  -25.875309    17.891602    15.022017    15.721288 
  -3.0444572    17.883651    15.024426    15.722696 
    53.17408    17.875578    15.026217    15.725984 
   23.015758    17.869631    15.027779    15.729386 
  -8.0513341    17.864605     15.03046    15.732088 
   -60.87169    17.859258    15.032509    15.734259 
   40.819703    17.851475    15.034561    15.735787 
   38.823594    17.845325    15.036652    15.738437 
   57.060408    17.840728    15.038664    15.739827 
  -2.5022997    17.838414    15.042585    15.740139 
   27.152014    17.835999    15.045631    15.742957 
   4.0116269     17.83467     15.04932    15.743415 
   57.373517    17.833502    15.053127    15.744158 
  -33.160028    17.834629    15.055393    15.743496 
  -14.698824     17.83443    15.057785    15.742456 
   58.219815    17.833642    15.058058    15.742211 
  -68.343522    17.835183    15.058073    15.741609 
  -19.325657    17.833991    15.057634    15.739505 
   28.464255    17.832026    15.058372    15.736242 
    -64.4861    17.831199    15.060591    15.733083 
   9.7228045    17.827792    15.063763     15.73024 
  -5.4933056    17.824775    15.067405     15.72966 
  -11.908383    17.821538    15.069348    15.728019 
   8.9697805    17.817824    15.071989    15.729969 
  -18.960498     17.81447    15.075461    15.730722 
  -1.9908438    17.810356    15.079285    15.730888 
   11.933596    17.806164    15.083825    15.734031 
  -25.445416    17.802448    15.087106    15.735761 
   11.218545    17.797715    15.090275    15.737491 
   21.674058    17.793431     15.09286    15.739724 
  -7.4754566    17.790013    15.092601    15.743162 
   6.4192932    17.786296     15.09347    15.747235 
   14.824883    17.782837    15.095115    15.750302 
  -11.302823     17.77997    15.095599    15.752428 
   45.569553    17.776651    15.094119    15.754473 
   49.170949    17.775155    15.093484     15.75794 
  -19.791125    17.775626    15.089985    15.760662 
  -5.8998504    17.775305    15.086862    15.763432 
  -10.512294    17.774748    15.084931    15.765873 
   39.436153     17.77377    15.082753    15.767672 
   41.914816     17.77437    15.079711    15.770269 
   32.961083    17.776647    15.075015    15.771782 
   19.311046    17.780242    15.071716    15.773697 
  -4.2800536     17.78461    15.071207    15.776907 
   62.730588    17.788806    15.072628    15.778862 
  -17.113118    17.795512    15.073358    15.781044 
   18.865361    17.801533     15.07327    15.780871 
 -0.93785509    17.808308     15.07293    15.780829 
   69.747913    17.815046    15.071629    15.780531 
   37.032486    17.824574    15.069992    15.777839 
   21.240858    17.835584    15.068034    15.774264 
  -39.517785    17.847443    15.067974    15.774114 
   5.6669667    17.857721    15.067767    15.773186 
   40.975696    17.868226    15.068327    15.773075 
   57.135666     17.88037     15.07046     15.77144 
   7.9903713    17.894799    15.072365    15.768717 
   32.542513    17.909548    15.075235    15.765214 
  -28.509172    17.925599    15.077837    15.761969 
   23.416099    17.940509    15.079237    15.756943 
   8.7654963    17.956356    15.082896    15.750292 
  -55.622575    17.972554    15.084051    15.744136 
   28.462247    17.986527    15.085998    15.736922 
  -2.3385916    18.001638    15.087301    15.729693 
  -80.478906    18.016655    15.087641    15.721621 
   -35.50941    18.028454    15.088842    15.717294 
   -14.86276    18.038832      15.0891    15.711725 
   56.713475    18.048616    15.090649    15.707772 
  -18.585888    18.060668    15.090871    15.705064 
   -33.50015    18.071977    15.090111    15.700969 
  -32.697321    18.081945    15.087838    15.696913 
  -5.0716497    18.090606    15.085025    15.690952 
   28.471364    18.099064    15.082669    15.685603 
   7.5441137    18.108661    15.078912     15.68169 
  -2.7067212    18.118559    15.074088    15.679101 
  -32.144898     18.12835    15.068369     15.67555 
  -2.7127385    18.136854    15.063133    15.672536 
  -11.578302     18.14525     15.05889    15.671171 
   6.8096514    18.153183    15.057137     15.67022 
   51.662356    18.161388      15.0552     15.66879 
  -3.7390242     18.17166    15.050305    15.669215 
   6.2065652    18.181782    15.044414     15.67187 
   7.6931192    18.192153    15.040815    15.674869 
  -59.944119    18.202831    15.036604    15.676214 
  -52.432742    18.211111    15.031582    15.677963 
   15.838787    18.217294    15.026495    15.682328 
   26.430154    18.224111    15.022536    15.685031 
  -50.107175    18.231985     15.01676    15.688176 
   -18.61788    18.237854    15.008228    15.691851 
   15.907967    18.242979    15.001176    15.694427 
   22.506394     18.24874    14.995384    15.696664 
   32.026315    18.255402    14.990221     15.69904 
  -24.761036    18.263344    14.985169    15.699897 
  -22.823657    18.270296    14.979066     15.70207 
   29.712442    18.276335    14.973202    15.704147 
   44.446136    18.283563    14.966819    15.705549 
    28.07435    18.292568     14.96112    15.706895 
  -39.001988    18.302697    14.957645    15.707647 
   55.218768    18.311265    14.953248    15.708483 
  -35.956679    18.322042    14.949847    15.709679 
   26.867774    18.331381    14.945957    15.709838 
   13.987547    18.341794    14.941321    15.710913 
  -2.6581062    18.352767    14.936792    15.712085 
   33.578283    18.363634     14.93149    15.713862 
  -52.687254    18.375844    14.928082    15.715926 
  -46.043105    18.385946    14.924981    15.718301 
   43.714192    18.394207     14.92364    15.720197 
  -18.200768    18.404216    14.923575    15.720642 
  -26.451503    18.413497    14.920427    15.720357 
  -45.075615     18.42172    14.917492    15.720421 
  -34.053622     18.42814    14.915036    15.720488 
  -31.563394    18.433198    14.912257    15.721832 
   35.195058    18.436994    14.909335    15.723275 
   17.665041    18.442197    14.905781    15.724565 
   -16.99631    18.448107    14.902768    15.726669 
  -2.2809303    18.453337    14.900885    15.728539 
  -44.700891    18.458475     14.89752    15.730805 
   -58.17733    18.461826    14.895137    15.733137 
  -48.136284     18.46285    14.893289    15.736108 
   6.4372946    18.461948    14.889844    15.739948 
   20.667179    18.461303    14.884232    15.744224 
  -4.7278981    18.461486    14.879393    15.749441 
   36.666753    18.461479    14.874652    15.755698 
    25.05834    18.462939    14.868854    15.761107 
  -64.425524    18.465401     14.86156    15.767123 
  -12.791013    18.465286    14.855928    15.773716 
  -13.644861     18.46466    14.850681    15.780108 
  -15.191991    18.463487    14.844239    15.786847 
  -12.469785    18.461707    14.837554    15.793113 
   8.7446208    18.459429    14.830159    15.797644 
   38.892766      18.4575    14.822579      15.8035 
  -13.544754    18.457126    14.816962     15.81039 
    66.01106    18.456211    14.810515     15.81837 
  -47.657416    18.457937    14.803137    15.824497 
   41.707149    18.457756    14.795316    15.832029 
  -21.206724    18.459243    14.788531    15.838747 
  -41.612355    18.459882    14.783283    15.843447 
  -46.948084    18.458857    14.777213    15.845849 
  -16.841596    18.455954    14.771667    15.846118 
   49.419028    18.452377    14.767474     15.84782 
  -26.419776    18.450777    14.762565     15.85099 
   12.057301     18.44812    14.755852    15.852552 
  -7.3352079    18.445945    14.748181    15.852757 
  -1.4871869    18.443477     14.73835     15.85194 
   9.1809572    18.440949    14.726992     15.85208 
   15.777194    18.438789    14.717569    15.851764 
  -68.874534     18.43726    14.707882    15.848395 
  -56.225658    18.432975    14.696905     15.84642 
  -7.1588069    18.426442    14.684057    15.842697 
   60.392131    18.419622    14.672283    15.839554 
  -6.6110896    18.415218    14.660348    15.836423 
  -14.092661     18.41055     14.64739    15.835242 
   12.822495    18.405318    14.635098     15.83213 
  -6.8043213    18.400599     14.62066    15.829727 
  -53.110574    18.395607    14.606776    15.827046 
  -39.245419    18.388492    14.592764    15.824538 
   9.3215306    18.379806    14.578376    15.821584 
  -19.871376    18.371493    14.565323    15.818434 
   3.2391615    18.362386    14.551359    15.816966 
  -8.6380635    18.353408    14.537872    15.815181 
  -10.462964    18.344084    14.524267    15.814987 
  -24.428574    18.334342    14.511221    15.816315 
   40.006562    18.323623    14.500554    15.818161 
   10.660748    18.314504    14.488273    15.818082 
   18.587261    18.305811    14.477282    15.817204 
   25.832966    18.297862    14.467441    15.816339 
  -4.3747535    18.290947    14.459146    15.814779 
   3.1868003    18.283856    14.450357    15.812392 
   23.156333    18.276893    14.441446    15.810407 
    35.98043    18.270856    14.431084    15.808355 
   20.138049    18.266258    14.421248    15.807978 
  -6.2630992    18.262466    14.412432    15.808164 
   25.073867    18.258423    14.404529    15.810003 
    17.15894    18.255383    14.396418    15.810492 
  -6.9398703     18.25303    14.387658    15.810158 
    38.70236    18.250399    14.378101    15.808731 
   48.658708    18.249316    14.369829    15.805982 
  -25.875299    18.250179    14.361287    15.803528 
   12.454762    18.250008    14.352724    15.801335 
  -23.490184    18.250334      14.3428    15.797122 
  -11.133307    18.249721    14.333216    15.791245 
   3.1596506    18.248663    14.322861    15.785036 
  -24.873301    18.247731    14.313111     15.77927 
  -24.329012    18.245804    14.302186    15.772449 
   59.709607    18.242904    14.291038    15.765697 
   51.364959    18.242392     14.28188    15.759036 
   22.157178    18.243935    14.273277    15.753534 
  -11.655913    18.246364    14.265817    15.749515 
   5.2131535    18.248327    14.257478    15.746655 
  -17.638676    18.250499    14.250634    15.741811 
   14.358191    18.251965    14.242945    15.736923 
   19.815035    18.254005    14.237521    15.733384 
  -14.242564    18.256838    14.231405    15.730027 
  -33.032707    18.259101    14.224916    15.728241 
  -38.714174    18.260043    14.218607    15.728518 
   44.507798    18.259436    14.213195    15.729844 
   86.150083     18.26061    14.207071    15.731986 
   18.177829    18.265229    14.203172    15.733591 
   -46.51412    18.270576    14.197865    15.737003 
  -17.991872    18.274062    14.196011    15.739856 
    40.88319    18.276829    14.195019    15.744834 
  -68.336024     18.28123    14.192736    15.749755 
   -33.75492    18.282899     14.19279    15.755196 
  -8.1126475    18.283217    14.194329    15.758821 
  -42.257966    18.283211    14.194698    15.763785 
   42.152946    18.281514    14.196041    15.769542 
  -4.5596471    18.281503    14.197529    15.776891 
  -2.8978978    18.281311    14.197849    15.782118 
  -14.076239    18.281002    14.197809    15.787458 
   2.2422435     18.28013    14.196901    15.792988 
  -14.382748    18.279348    14.197307    15.796536 
  -41.847037     18.27799    14.198839    15.800715 
   4.9592604    18.274959    14.199548    15.804787 
  -30.540314    18.272126    14.202081    15.807465 
    7.777487    18.268071    14.204285    15.809276 
  -17.562998    18.264328     14.20454    15.809701 
  -13.523752    18.259882    14.204178    15.811727 
  -1.4589871    18.254895    14.202065    15.814297 
   48.544186    18.249849    14.202436    15.815293 
   23.581971    18.246746    14.202973     15.81425 
  -35.578688    18.244585    14.204387    15.813883 
   4.6625481    18.241002    14.205864    15.813527 
  -20.579661    18.237605    14.207918    15.811584 
   14.962322    18.233385    14.209673    15.809035 
   12.278922    18.229763    14.212983    15.807782 
  -7.4275789    18.226633    14.216781     15.80875 
  -27.415092    18.223205    14.220986    15.806628 
   50.193327    18.218681     14.22492    15.804744 
  -78.616056    18.216164    14.226727    15.802039 
  -28.992352    18.210503    14.230595    15.796948 
  -18.498818    18.203682    14.234638    15.791832 
  -20.462649    18.196122    14.237093     15.78466 
   33.882652    18.187742    14.241839    15.777367 
  -1.7687387    18.180718     14.24608    15.770865 
   6.9649783    18.173624    14.249043      15.7639 
   39.714967    18.166808    14.254726    15.757264 
  -4.1533243     18.16158    14.261967    15.752076 
  -38.961773    18.156186    14.267421    15.746899 
   28.373214    18.149234    14.273468    15.741039 
     14.4331    18.143417    14.279603     15.73729 
   33.869078    18.138177    14.285956    15.731772 
   8.9638988    18.134292     14.29218    15.724016 
   17.394445    18.130766    14.301457    15.716733 
  -17.317882    18.127935    14.310223    15.708251 
    12.45747    18.124411    14.318311    15.698645 
  -40.166228    18.121386    14.325491    15.688635 
  -17.669648    18.116754     14.33317    15.679958 
   23.006405    18.111416    14.338796     15.67247 
  -38.253124    18.106997    14.343839    15.667503 
  -10.659922    18.101049    14.349329    15.664208 
   52.928181    18.094674    14.355692    15.660424 
   62.726657    18.090416     14.36185    15.657725 
   16.591863    18.088668    14.368047    15.653716 
   58.393616    18.087583    14.372802    15.650167 
   -12.36016    18.088833    14.378235    15.647346 
   12.932346     18.08959    14.382665    15.646344 
   -1.700265    18.090863    14.386588    15.643355 
  -29.192222    18.092069     14.39168    15.639876 
   -13.43583    18.092107    14.396797    15.635553 
   18.569204    18.091607    14.403481    15.631354 
  -16.319881    18.091851    14.410057    15.627684 
   38.463994    18.091441    14.414838    15.625629 
   1.3626468     18.09257    14.420943    15.625064 
  -40.740996    18.093754    14.427551    15.626323 
   -54.93839    18.093307    14.433074    15.627822 
  -28.276089    18.090664    14.436094    15.628766 
   -13.75455    18.086889    14.438922     15.63054 
   20.124141    18.082564    14.442043    15.630962 
   18.849538    18.079044    14.443875    15.632267 
   11.932315    18.076278    14.447111    15.633025 
    6.609632     18.07399    14.449682    15.632967 
   41.790821    18.071966    14.453288      15.6302 
  -6.6528193    18.071613    14.456785    15.626737 
  -32.468019    18.070994    14.460616      15.6229 
  -37.247759    18.069077    14.464712    15.616467 
  -15.976022    18.065669    14.467557     15.61001 
   53.172962    18.061623    14.471398    15.602498 
   13.782074    18.059703    14.474948    15.594553 
  -15.667686    18.058335    14.477306    15.584547 
   1.3011731     18.05634     14.47952    15.573893 
   9.3288503    18.054398    14.480547    15.564461 
   17.813948    18.052828     14.48231    15.557033 
  -48.840335    18.051971    14.485803    15.550009 
  -5.0118989     18.04916    14.490372    15.543411 
   25.344488    18.046149    14.493296    15.536721 
   34.221074    18.044151    14.494385    15.529558 
   46.119973    18.043523    14.495636    15.519196 
  -5.6988784    18.044739     14.49743    15.507866 
  -45.277745    18.045727    14.500982    15.496808 
  -8.4236802    18.044904    14.503822    15.484282 
   27.786584    18.043744    14.505435     15.47161 
   24.738645    18.043696    14.506821     15.46166 
  -2.0231424    18.044637    14.507919    15.453669 
  -5.8808842    18.045497    14.508474    15.445158 
  -80.422346    18.046122    14.507942    15.436825 
  -14.887284    18.043531    14.507813    15.430543 
   24.931852    18.040343    14.507872     15.42479 
   16.376099    18.038153    14.508649    15.419805 
  -8.0092272    18.036618    14.509897    15.415541 
  -31.893538    18.034763    14.511022    15.410759 
   26.478831    18.031631    14.511499      15.4074 
   21.045778    18.029559    14.513554    15.405881 
   11.754642    18.028329    14.516137    15.403426 
   16.932014    18.027569     14.51891    15.399219 
  -2.2701198    18.027487    14.519799    15.394326 
  -22.008264    18.027313    14.523366    15.389599 
   4.6730191    18.026259    14.526124    15.388015 
  -32.224545    18.025392    14.527886    15.386015 
   26.794676    18.023236    14.529075    15.384946 
  -9.1593861    18.022152    14.530623    15.385158 
  -28.920666    18.020702    14.532034    15.385632 
   2.6754652    18.018094    14.534249    15.384592 
   9.8120469    18.015594    14.534196    15.382912 
  -29.851143    18.013486    14.534758    15.381651 
  -8.5696486    18.010184    14.534537    15.379029 
  -32.555817     18.00654    14.534866    15.375747 
   40.950915    18.001593    14.536295    15.372779 
   -8.902313    17.998284     14.53878    15.369383 
  -54.179856    17.994619    14.541607    15.365753 
   1.6305151    17.988787    14.544611    15.361045 
   18.096608     17.98302    14.548666    15.357371 
  -40.552725    17.977977    14.552276    15.352488 
  -73.229089    17.971312    14.554294    15.347395 
  -27.577277    17.961718    14.555479    15.342062 
   44.380444     17.95102    14.555926    15.334797 
  -51.387152    17.942098    14.555899     15.32759 
  -18.991054     17.93112    14.555527    15.318618 
   21.171827    17.919383    14.554642     15.31025 
  -1.8731861    17.908492    14.555116    15.299538 
  -7.1459444    17.897527    14.555382    15.287426 
  -4.9293271    17.886276    14.554663    15.275098 
   -29.48109    17.874828    14.552947    15.261906 
   -42.88527      17.8622     14.55128    15.248288 
  -22.807494    17.847857    14.546275    15.233496 
   29.794649    17.832601    14.542173    15.218899 
  -3.6255889    17.818538    14.539409     15.20474 
  -1.5989665    17.804329    14.534543    15.189592 
   -18.74462    17.790057    14.529231    15.173493 
    -26.7827    17.775034    14.525086    15.157102 
   -26.00796    17.758941    14.519698    15.139909 
  -10.115225    17.741807    14.515165    15.122718 
   4.9290916    17.724268     14.51067    15.107804 
   48.840041    17.706927    14.506104    15.092678 
   18.649982    17.691539     14.50408    15.079894 
   2.2719336    17.676897    14.502004    15.067716 
   40.639336    17.662346    14.501515    15.055075 
   30.323486    17.649421    14.500859    15.042746 
   9.8043331    17.637709    14.499099    15.029647 
  -3.5590174    17.626388    14.497724    15.016211 
  -32.856591    17.614926    14.497179    15.003312 
   32.148584    17.602149    14.499145    14.992101 
   33.414116    17.590658    14.500273    14.979622 
  -3.3369415    17.580504    14.500082    14.968097 
   43.831976    17.570216    14.499403    14.955861 
   38.114839    17.561681    14.498501    14.945643 
   25.680198    17.554671     14.49564    14.935871 
  -6.9121411    17.548689    14.492609    14.926985 
   -40.69795    17.542429    14.488503    14.920514 
  -18.619056    17.534542    14.483411    14.913656 
   22.389711     17.52591    14.478507    14.907178 
   18.424038    17.518174    14.472752     14.90131 
  -24.970004    17.511175    14.465637    14.894123 
    31.45722    17.503177    14.458847    14.883422 
   40.464782    17.496437    14.452219    14.872235 
  -62.157582    17.491315    14.444781    14.860804 
   8.1150398    17.483708     14.43521    14.853003 
   10.569762    17.476425     14.42754    14.847738 
  -23.573254    17.469565    14.419821    14.844098 
   2.1757351    17.461762    14.410053     14.84013 
   33.949139    17.454045    14.401341     14.83613 
  -1.8875137    17.447687    14.392689    14.830765 
   37.018029    17.441254    14.383915    14.824969 
  -2.8293344    17.436301    14.376372    14.820971 
   9.7719161    17.431235     14.37097    14.816163 
   9.1616535     17.42656     14.36618    14.811585 
   45.712276    17.422251    14.361468    14.806671 
  -19.953814    17.419771    14.360458    14.802481 
   12.955436    17.416492    14.358308    14.797874 
  -41.174448    17.413732    14.357107    14.793391 
  -24.608177    17.409325    14.352997    14.790311 
   4.3132863    17.403933    14.347857    14.787476 
   9.3864818    17.398714      14.3431    14.786311 
   8.4393279    17.393871    14.339767    14.781932 
   22.850288    17.389365    14.336027    14.776625 
   8.7074288    17.385773    14.333329    14.770319 
   3.8164669    17.382529      14.3285    14.763092 
   14.154863    17.379438    14.324329    14.755809 
   47.395865    17.376914    14.318996     14.74951 
   28.628049    17.376285    14.312562    14.742344 
  -32.241554    17.376801    14.305553    14.735389 
   39.471107    17.376028    14.297389    14.729317 
   22.419971    17.376833    14.290683     14.72228 
   14.490668    17.378535    14.282713    14.715635 
  -38.065416    17.380817    14.274792    14.708694 
  -10.136206    17.381576    14.267978      14.7011 
   6.3904051     17.38193    14.260822    14.693735 
    19.73939    17.382539    14.254514    14.684092 
    -25.0535    17.383938    14.248283    14.675087 
   2.5130485    17.384335    14.243377    14.666441 
   10.128227    17.384832     14.24043     14.65752 
  -17.821419    17.385735    14.237241    14.647986 
  -57.686918    17.385924    14.234706     14.63943 
  -38.440812    17.383806    14.229998    14.631078 
   41.409736    17.380151    14.226725    14.623369 
  -13.120786    17.378152    14.224096    14.616427 
   44.560037    17.375628    14.222312    14.610102 
   17.305285    17.374886    14.222203    14.604141 
   12.095906    17.374837    14.223853    14.597385 
  -7.8140131    17.375271    14.223062    14.590379 
  -11.107661    17.375393    14.220873    14.585319 
   37.850543    17.375071    14.219417    14.579332 
  -54.742391    17.376262    14.215956    14.573387 
   34.610036    17.375264    14.213471     14.56671 
   2.7711066    17.375651    14.210942    14.561528 
   43.864809    17.376148    14.209646    14.556861 
   30.788938      17.3784    14.207976    14.553352 
   80.138435    17.381883    14.206523    14.547633 
  0.79595222    17.388572    14.204363    14.539653 
   18.644993    17.395293    14.203043    14.534481 
   21.543057    17.402759    14.200913    14.528604 
  -21.702925    17.411087    14.197396    14.522451 
  -14.471999    17.418548    14.193091    14.514456 
  -4.6824992    17.425429    14.189953    14.506249 
  -10.724204    17.432123    14.186318    14.496899 
   56.531785    17.438388    14.181888    14.486538 
   -10.61807    17.446914     14.17804    14.475367 
   37.558219    17.455015    14.174468    14.463153 
  -56.277843    17.464619     14.17002    14.450832 
   30.051912    17.471972    14.163294    14.437361 
   26.622949    17.480527    14.158729    14.424824 
   28.217298    17.490147    14.153264       14.411 
  -1.8213347    17.500895    14.147064    14.398649 
  -28.979855    17.511571     14.14246    14.386829 
   16.652012    17.521087    14.137382    14.374188 
   42.166476    17.531269    14.133241    14.361285 
  -10.782303    17.543138     14.13014    14.346904 
   -11.88147    17.554576    14.127788    14.331624 
   35.791663    17.565539    14.123124     14.31498 
   -10.17762    17.577933    14.117297     14.29803 
   26.201849     17.58992    14.110396    14.281251 
   17.645936    17.602955    14.102155    14.265323 
  -31.297603    17.616696    14.093483    14.250772 
   27.741482    17.629186    14.085202    14.235502 
   4.8701044    17.642784    14.077996    14.219565 
   -27.58607    17.656578    14.071883    14.202075 
  -14.562022    17.669268    14.064197    14.184666 
  -29.030811    17.681376    14.057339    14.167396 
  -29.199824    17.692322    14.050675    14.148998 
    52.49093    17.702101    14.043978    14.128841 
  -21.039214    17.713979    14.036511    14.109305 
   56.547722    17.725015     14.03165     14.09006 
  -12.192776    17.738314    14.026384    14.072294 
  -65.178354    17.751124    14.023492    14.054091 
   15.008918    17.761328    14.021613    14.036529 
   17.961242    17.772132    14.019601    14.021129 
  -17.733942    17.783654    14.019548    14.002989 
  -75.031065    17.794467    14.018546    13.985698 
  -57.575257    17.802279    14.016915    13.968273 
  -22.917916    17.807788    14.018525    13.952218 
  -14.691881     17.81238    14.020097    13.938229 
   70.491514    17.816384    14.023952    13.924127 
  -26.677838    17.823208    14.027318    13.913004 
  -67.719288    17.828965    14.030316    13.904749 
  -10.914845    17.832013    14.032565    13.897524 
   73.000462    17.834625    14.035077    13.890045 
   45.019468    17.840157    14.038384    13.880908 
   8.1926898    17.847489    14.040667    13.870247 
   59.374578    17.855149    14.042812     13.85981 
   25.080615    17.865184      14.0448    13.848918 
 -0.99260335    17.876222    14.049238    13.838679 
  -15.287262    17.887221    14.052935    13.830071 
  -16.602365    17.897608    14.055581    13.822784 
  -6.3986926    17.907331    14.058328    13.814718 
   40.368442    17.916798    14.060203     13.80735 
   5.4340229     17.92788    14.063254    13.798044 
  -26.714413    17.939179     14.06607    13.789544 
  -11.109803    17.949409    14.069707     13.78168 
  -23.111798    17.959196    14.073417    13.773481 
   18.478296    17.968057    14.074103    13.764716 
   29.552245    17.977658    14.073525    13.758082 
  -22.211571    17.988441    14.072765    13.752179 
  -14.156372    17.998336    14.072097    13.745452 
   3.9293338    18.007664    14.070915    13.738556 
   5.9509443    18.017149    14.070677    13.732684 
  -30.121731    18.026873    14.073004    13.727903 
   43.111362    18.035391    14.074755    13.724623 
  -1.8969395    18.045634    14.078893    13.721063 
   16.853923    18.055801    14.083718    13.716998 
  -11.759022    18.066642    14.088501    13.714208 
  -12.940956    18.077013    14.095197    13.710749 
  -13.149052    18.086867     14.10051    13.707682 
  -21.817379    18.096194     14.10657    13.706291 
  -49.241673    18.104649    14.112366    13.704698 
   48.825896    18.111134    14.116211    13.702586 
  -10.237735    18.119572    14.119958    13.699483 
   36.339361      18.1276    14.123845    13.696384 
   27.783537    18.137082    14.128332    13.692347 
  -21.664333    18.147675    14.131838    13.689374 
  -52.250568    18.157402    14.134824    13.684048 
  -2.0934104    18.165039    14.140227    13.679195 
  -25.877652    18.172592     14.14557    13.675551 
  -24.147114     18.17911    14.150714    13.673395 
   -42.56833    18.184662    14.156275    13.671578 
   -4.527192    18.188511    14.161816    13.669254 
   -25.09219     18.19218    14.169141    13.667318 
  -19.648469    18.194844    14.176709    13.664881 
   14.341528    18.196723    14.183915    13.661375 
   6.1458574    18.199175    14.189864    13.658102 
   25.869787    18.201873    14.193733    13.654759 
   38.661769    18.205606    14.196723     13.65175 
   43.442619    18.210886    14.198716    13.647999 
  -39.030661    18.217903    14.202504    13.643351 
  -48.684852    18.223359     14.20629    13.639699 
  -18.420144    18.226867    14.208639    13.637054 
  -6.9294455    18.229639    14.210063    13.634975 
    3.477421    18.232133    14.210106    13.632015 
   51.271929    18.234767    14.210675    13.629181 
  -48.990516    18.239451     14.20857     13.62697 
   63.819898    18.242176    14.206714    13.624472 
    4.633688    18.247454    14.204129    13.622224 
   3.6498951    18.252917    14.203993    13.620577 
  -32.078131    18.258526    14.202465     13.61691 
  0.93021911    18.262852     14.20089    13.611545 
  -79.151541    18.267215    14.200668    13.606156 
  -59.308485    18.268412    14.198905    13.601856 
  -29.701311    18.267236     14.19679    13.599505 
  -25.157383    18.264873     14.19506    13.595589 
  -23.375388    18.261503     14.19133    13.590844 
   -19.59722    18.257198    14.189187    13.585208 
  -6.0993784     18.25211    14.187798    13.579627 
   20.875298    18.246777    14.186454     13.57784 
  -27.923902     18.24228    14.184595    13.577515 
   21.047747    18.236665    14.182607    13.576269 
  -5.2362683    18.231893    14.180713    13.573568 
  -36.388968    18.226911    14.177782    13.572222 
   76.760776    18.220473    14.175645    13.572547 
 -0.44215416    18.217106    14.174105    13.573123 
   19.730564    18.213721    14.172847    13.575197 
   20.297832    18.211125    14.171257    13.579439 
   1.1776344    18.209342    14.171566    13.583247 
  -36.393949    18.207605    14.171078    13.587116 
  -2.2575291    18.204412    14.171252     13.59177 
  -54.213479     18.20113    14.171198    13.597344 
   16.804793    18.195679    14.173854    13.602226 
   55.356576      18.1909    14.175633    13.607025 
  -21.065822    18.188335    14.175004    13.611722 
    54.14466    18.184927    14.174608    13.618047 
  -23.783602    18.183686    14.175044    13.621974 
   43.135851    18.181493    14.177028    13.624384 
   82.335072    18.181025    14.178377    13.627257 
  -13.307709    18.183851    14.180456    13.628396 
   43.963408    18.186145     14.18294    13.629331 
   9.0909048    18.190197    14.186865    13.633145 
  -22.326271    18.194613    14.188304    13.636233 
  -83.258585    18.198135    14.187915    13.639271 
  -24.418363    18.198328    14.188003    13.640279 
  -15.455993    18.197543    14.186966    13.641031 
  -41.437195    18.196141    14.187027    13.640505 
   36.553813     18.19308    14.187633    13.641069 
  -22.218317    18.191483    14.186241    13.640097 
  -2.9755734    18.188996    14.187101    13.639031 
  -49.069674     18.18639     14.18792      13.6373 
   25.155165    18.181822    14.188593    13.635043 
  -27.462597    18.178259    14.186701    13.631901 
   -14.14193    18.173598    14.183783    13.628966 
   10.204724    18.168372     14.18025     13.62645 
   -11.19438    18.163554    14.177997    13.623593 
   8.2776789    18.158288    14.173892    13.622553 
  -3.8124331    18.153353    14.170787    13.619401 
   21.300197    18.148265    14.167558    13.615584 
   13.085285     18.14403    14.164812    13.610561 
  -2.1780235    18.140318    14.161348     13.60573 
  -14.538052    18.136519    14.158836    13.602211 
   12.732109    18.132138    14.153474    13.597894 
   32.839435    18.128267    14.150768    13.594612 
   58.446839    18.125709    14.149632    13.593295 
  -27.359518    18.125489    14.148603    13.591225 
  -29.973456    18.124174     14.14674    13.587906 
 -0.85354738    18.121661    14.143623    13.585517 
  -5.6550709    18.119114    14.139876    13.581571 
   9.6073623     18.11634    14.134393    13.579231 
   2.9321968    18.113951    14.127389    13.576479 
  -3.7051465    18.111679    14.122512    13.574174 
  -5.8464486    18.109259    14.115213    13.572419 
   29.377606    18.106604    14.105207    13.569076 
   12.833978    18.105125     14.09348     13.56618 
-0.015369428     18.10416    14.079866    13.564124 
   25.779852    18.103194    14.067478    13.562779 
   7.5286521    18.103259    14.052749    13.561354 
  -28.201868    18.103625    14.035825    13.560634 
  -45.950149    18.102863     14.01983    13.560763 
  -38.467443    18.100263    14.003962    13.562369 
   1.8895189    18.096124    13.990166    13.563874 
  -31.367722    18.092061    13.975795    13.564102 
   16.311408    18.086743    13.963219     13.56629 
  -27.788353    18.082078    13.950374    13.567224 
   12.179491    18.076301     13.93859    13.569313 
  -29.179808    18.071011    13.927361     13.56959 
  -33.870247    18.064554    13.917136    13.566459 
   21.450876    18.056743    13.907924    13.563965 
   35.478883    18.049789    13.897061    13.559255 
  -17.003957    18.044254    13.886695    13.558294 
   4.0123089     18.03804    13.876281    13.556956 
  -30.865948    18.031986    13.865305    13.555169 
   57.323949    18.024697    13.854517    13.552311 
   61.138852    18.019701    13.845075    13.546578 
   49.740344    18.017151    13.836235    13.540857 
  -3.2262849     18.01659    13.828822    13.535077 
   26.610903      18.0159    13.821567    13.529275 
  -3.2195799    18.016275    13.814822    13.522553 
  -4.3275462    18.016521    13.809415    13.517125 
  -23.549209    18.016593    13.805463    13.510747 
   17.827332    18.015724    13.801444    13.502832 
   41.642588    18.015568    13.799665     13.49402 
   15.202484    18.017078    13.797661    13.485894 
  -21.755561    18.019196    13.799437    13.476681 
  -46.916976    18.020443    13.801533    13.466644 
  -18.039068    18.019814    13.806355    13.457037 
  -8.2187662    18.018463      13.8121    13.448132 
   49.421479    18.016784    13.819164    13.439449 
  -11.896645    18.017081    13.825354    13.431977 
   6.9084085    18.016903      13.8336    13.424272 
   35.541311       18.017    13.844787    13.417705 
  -2.9644667     18.01852    13.856447    13.411215 
  -36.502778    18.019921    13.869301    13.402413 
  -26.981777    18.019862    13.880962    13.392583 
  -3.5845183    18.018723    13.890157    13.382472 
   18.317554    18.017441     13.89835    13.372294 
   18.220511    18.016892    13.905631    13.361156 
  -10.033312    18.017072    13.912054     13.34959 
   60.498282     18.01685    13.918134    13.336716 
  -25.146795    18.019049    13.924024     13.32538 
    17.22948    18.020241    13.930035    13.315865 
  -11.519005    18.022123    13.936448    13.306682 
   42.718378    18.023543    13.943818     13.29904 
  -8.2832147    18.026673    13.948266    13.292636 
   51.100707    18.029471    13.952772    13.285862 
   38.979666    18.034313      13.9582     13.28234 
   41.843994    18.040715    13.965594     13.28006 
  -1.1150439     18.04879    13.969874    13.278382 
    22.87334    18.056821     13.97416    13.279169 
  -23.904747    18.065766    13.980147    13.279772 
  -25.755108    18.073756    13.984582    13.278595 
  -79.230023    18.080715    13.991005    13.277026 
   1.5826422    18.084505    13.998277    13.275618 
  -30.669774    18.088358    14.004889    13.274678 
  -9.0575505    18.090984    14.013294    13.272014 
  -11.331406    18.093249    14.022816    13.268741 
  -22.726074    18.095059    14.031245    13.263993 
  -9.4101714    18.095961    14.038625    13.259924 
  -19.301026    18.096487    14.046358     13.25571 
   8.4408444     18.09624    14.051202    13.250121 
   -38.61921    18.096331    14.055657    13.243651 
  -5.7407419    18.094877     14.06042    13.239862 
   14.440267    18.093194    14.067175    13.235603 
  -13.489719    18.092088    14.073612    13.232322 
   21.537322    18.090443    14.080572    13.226727 
   52.532981    18.089659    14.088055    13.223676 
  -23.371625    18.090977    14.093215    13.221152 
  -4.7691357    18.091359    14.098459      13.2169 
   26.602876    18.091551    14.104254     13.21224 
  -9.6357928    18.092807    14.111709    13.206653 
   20.655849    18.093678     14.11725    13.201524 
   10.863897    18.095374    14.122818    13.196468 
  -13.735885    18.097506    14.128408    13.194387 
  -7.2348986    18.099088    14.135111    13.193135 
  -19.728077     18.10038     14.14272     13.19314 
  -34.304868    18.100883    14.149604    13.191736 
  -2.4432064    18.100015    14.156229    13.190474 
  -54.247627    18.099048    14.160866    13.188285 
   32.920328    18.095912      14.1661    13.188957 
   15.123473    18.094092      14.1695    13.191002 
   36.803775    18.092877    14.172403    13.191566 
 -0.23574609    18.093135    14.174595    13.191579 
   -59.77379    18.093383    14.177391    13.193831 
   -25.87333     18.09124     14.18132     13.19824 
   23.803118    18.088062    14.185186    13.202976 
   32.744162    18.085836    14.188724    13.208973 
   7.4361808     18.08492     14.19181    13.216032 
  -13.660012    18.084302    14.193949    13.222064 
   5.3922299    18.083137    14.194559    13.228061 
  0.99320805    18.082187    14.196131    13.233587 
   8.6364794    18.081278     14.19657    13.238348 
  -12.405943    18.080714    14.196699    13.242257 
  -4.8487039    18.079654    14.195849    13.247013 
   32.213525    18.078399    14.194066    13.251325 
   30.505497    18.078434    14.192043    13.254296 
   75.332208    18.079688    14.190785     13.25817 
  -18.300434    18.083956    14.187909    13.261529 
  -52.469096    18.087492    14.186259    13.264606 
   28.943523    18.088929    14.183699     13.26785 
  -18.449381    18.091524     14.18208    13.270758 
   19.908353     18.09338    14.180225    13.272776 
   36.315454    18.096033    14.179162    13.272627 
  -57.411299    18.100139    14.175863    13.272057 
  -52.835686    18.101948    14.172396    13.270987 
    36.56063    18.101644    14.169658    13.269343 
   48.312027    18.102803    14.166261     13.26789 
  -20.437157    18.105893    14.163154    13.264587 
    27.30501    18.108167    14.160199    13.265873 
   21.045947    18.111532    14.158094    13.266382 
  -13.953152    18.115739    14.157606    13.267476 
   6.0993717    18.119389    14.156313    13.268183 
  -13.714493    18.123282    14.154294    13.270754 
  -8.2989967    18.126626    14.153453    13.273179 
  -4.0097042    18.129639    14.153975    13.276344 
  -41.259933    18.132491    14.153511    13.276515 
   14.199608    18.133693    14.154311    13.275269 
   29.365962    18.135463    14.155666    13.272816 
  -28.701574    18.138407    14.154248    13.270404 
   29.754349    18.140204    14.152897    13.266941 
   21.832474     18.14319     14.15333    13.265262 
   61.891438     18.14705    14.153903    13.265062 
   14.920547    18.153386    14.154315    13.264643 
   64.469525    18.160318    14.154448    13.263497 
  -39.890155    18.169829    14.154786    13.262239 
   14.769239    18.177745    14.155404    13.261196 
  -28.794233    18.186251    14.154844    13.260206 
  -5.0578081    18.193606    14.153585    13.259123 
    7.070826    18.200758    14.152923    13.258806 
   -22.57426    18.208193    14.151168    13.260077 
   48.715116    18.214725    14.150662    13.260832 
  -70.234437    18.223206    14.151577     13.26407 
   22.011834    18.228877    14.152182    13.267689 
  -34.531915    18.235429    14.153141     13.27139 
  -24.234385    18.240599     14.15359     13.27454 
  -4.9582153      18.2448     14.15295    13.275578 
  -40.722649    18.248803    14.152266    13.276511 
    22.28962    18.251177    14.150146    13.278568 
  -46.529881    18.254443    14.150254     13.28128 
  -19.230956    18.255847    14.151394    13.284289 
   37.874876    18.256482    14.153973    13.289733 
  -40.618348    18.258632    14.155844    13.293777 
   45.702444    18.259157    14.158037     13.29857 
  -4.1175072    18.261511    14.161037     13.30308 
  -27.638507    18.263699    14.163903    13.308754 
   26.752344    18.264783    14.167076    13.312595 
   13.940406    18.266936    14.169693    13.317526 
   19.993232    18.269647     14.17035    13.323436 
  -40.053717    18.273157    14.169034    13.327932 
   24.077705    18.275066     14.16567    13.333314 
  -25.344606    18.277937    14.162197    13.336343 
   54.585426    18.279795    14.156421    13.339501 
   17.818564    18.283836    14.151345    13.341401 
  -6.7876669     18.28859    14.145019    13.344605 
   2.6667799    18.293073    14.138179    13.348304 
  -13.859848    18.297662    14.132565    13.354761 
  -16.222796    18.301697     14.12926    13.362398 
   2.7165873    18.305082    14.124718    13.369014 
   14.504098    18.308577    14.119739    13.376751 
   59.707762    18.312651    14.115977    13.385198 
   8.6803235    18.319114    14.112944    13.395044 
  -68.856189    18.325925    14.110599    13.404068 
  -43.190888     18.32998     14.11023    13.415111 
   21.795434    18.332309     14.11034    13.422985 
  -42.757533    18.335509    14.112362    13.429423 
  -8.4425411    18.336999    14.114379    13.432832 
   9.3620952    18.338151    14.118115    13.436378 
  -53.215502    18.339677    14.122191    13.437344 
-0.087238442    18.339075    14.126853    13.436062 
   29.311924     18.33847    14.133262    13.434102 
   17.146085    18.339037    14.138983    13.429634 
  -13.062114    18.340289    14.143922    13.423462 
    52.00344     18.34102     14.14862    13.415587 
   60.809524     18.34383    14.150687    13.408156 
   10.289126    18.349073    14.153305    13.401196 
   -3.206098    18.354727    14.155572     13.39284 
   12.491353    18.360253    14.157259    13.384251 
   37.473756    18.366279    14.159007    13.375485 
  -93.215093    18.373804     14.16041    13.367166 
  -38.687312      18.3776    14.161317    13.360711 
  -2.9809356    18.379849     14.16166    13.354465 
  -51.481869    18.381978    14.164461    13.346438 
   44.534439    18.382048    14.166999    13.337335 
   45.167147      18.3839     14.17021    13.329019 
   45.429943    18.387558    14.176482    13.320438 
  -8.6502189    18.393033    14.183794    13.309702 
  -26.941442    18.398163    14.191858    13.299866 
   16.896371    18.402214    14.200594    13.288165 
  -29.782292    18.406942     14.20894    13.278014 
   5.5331688    18.410478    14.217303    13.267145 
    19.50973    18.414236    14.226346    13.256997 
  -6.8707119    18.418774    14.233799    13.247639 
  -22.436159    18.423037    14.241964    13.238418 
  -11.222364    18.426403    14.248209    13.227887 
    11.82029     18.42932    14.254857    13.218511 
   26.608047    18.432709    14.261984    13.206768 
  -4.2053079    18.437163     14.27083    13.194576 
    21.61937    18.441449    14.278243    13.181033 
  0.78075565    18.446599     14.28291    13.165531 
  -30.968289    18.451781    14.287479    13.147104 
   12.642775    18.455724    14.290446    13.127659 
  -38.009316    18.460173       14.293    13.107235 
   8.7701407    18.463101    14.296057    13.086399 
  -14.368507     18.46638      14.2993    13.065509 
  -20.357994    18.469085    14.300869    13.047105 
   4.8041511    18.470975    14.304362    13.028368 
  -59.751124    18.473057    14.308206    13.010064 
  -7.1606721     18.47275    14.310202    12.989997 
   22.407089    18.472155    14.313107    12.968675 
  -40.893231    18.472457    14.317382    12.946013 
   1.5372185    18.471124    14.321798    12.924312 
   4.9449302    18.469852    14.327831    12.902983 
   10.689396    18.468777    14.333816    12.884547 
   28.996985     18.46813    14.339255    12.866301 
  -16.734909    18.468644    14.343226    12.848255 
  -22.854214    18.468487    14.346692    12.831991 
   12.708233    18.467417    14.348502    12.815771 
   21.103434    18.466855    14.350352    12.799753 
  -20.648541    18.467137    14.352821    12.782981 
   54.794836    18.466593    14.354214    12.767066 
  -27.299061    18.468241    14.353928     12.75295 
   -29.84165    18.468796    14.350699    12.741988 
  -28.654526    18.468159    14.349267    12.730342 
  -4.9060809    18.466375    14.346137    12.718437 
  -11.548897    18.464395    14.344221    12.709041 
    7.392582    18.461952    14.341611    12.701076 
    40.95687    18.459806    14.341545    12.694207 
 -0.43966221    18.459298    14.342438    12.687246 
  -50.402912    18.458772    14.344859    12.679087 
   2.0666502     18.45623    14.345838    12.669927 
   17.080387    18.453771    14.347216    12.661742 
   25.850209    18.451995    14.348526    12.653144 
  -33.214302    18.451253    14.350418     12.64372 
  -20.819067    18.449182    14.351094    12.634817 
  -34.636359    18.446279    14.352154    12.625501 
   15.371684     18.44199    14.352486    12.614932 
   10.566456    18.438316    14.354095    12.603664 
   21.317556    18.435065    14.355476    12.594253 
  -4.8780976    18.432667    14.356606    12.586366 
   2.1749887    18.430073    14.357548    12.579615 
   1.3777091    18.427566    14.357841    12.571701 
   7.9355706    18.425115     14.35881    12.565192 
  -33.442862     18.42298    14.360389    12.560721 
  -2.3458534    18.419509    14.361457    12.555852 
    38.45984    18.415943    14.362766    12.550049 
   1.5563339    18.413916     14.36128    12.544065 
   3.3872942    18.411951    14.360268    12.537133 
  0.19359036    18.410121    14.359463    12.527685 
  -16.414798    18.408299     14.35917    12.516533 
  -9.2242436    18.405821    14.358775    12.507535 
   -15.45836    18.402973    14.358733    12.500198 
  -10.067585    18.399508    14.359703    12.491502 
   45.666799    18.395639    14.363039    12.482615 
  0.68906232    18.393598    14.367827    12.475658 
  -37.740339    18.391583    14.372043    12.466509 
   34.578582     18.38806    14.376007     12.45831 
   2.8700478    18.385919    14.380962    12.450789 
  -27.344637    18.383893    14.387856    12.442873 
  -42.224632    18.380773    14.394158    12.436835 
    -46.1779    18.375965    14.401217    12.431975 
   25.306754    18.369309    14.409151      12.4262 
   16.027055    18.363666    14.418293    12.422257 
   58.222733    18.358663      14.4264     12.42044 
   31.101569     18.35599    14.434033    12.416995 
  -19.756213     18.35456    14.440061    12.412952 
  -27.458634    18.352341     14.44705    12.407702 
  -16.339666    18.349023    14.452628    12.404972 
  -30.275983    18.345051    14.455953    12.403005 
   59.365651    18.339869    14.457996    12.400197 
   13.105027    18.337061    14.458247    12.397462 
  -11.295988    18.334777    14.459286      12.3934 
   22.797214    18.332041     14.46086     12.38978 
   3.9032121    18.330217    14.461496    12.384798 
   32.507745     18.32855    14.459892    12.377293 
  -52.170369    18.328182     14.45819    12.369029 
  -27.603219    18.325728    14.456879     12.36069 
    25.26484     18.32217     14.45414    12.351788 
  -27.756499    18.319622    14.451567    12.342193 
   61.311808    18.315964    14.450423    12.332667 
  -83.532357    18.314759    14.451733    12.323779 
    32.71187    18.310212    14.452149    12.313597 
    8.286006    18.306974    14.455036    12.304427 
   44.708677    18.304067    14.456206    12.295059 
   29.412248    18.302949    14.456545    12.287934 
  -51.706445    18.303007    14.456333    12.280337 
   75.019449    18.300996    14.455512     12.27253 
  -43.197073    18.301987    14.454042    12.264218 
    21.40446     18.30125    14.452149    12.254673 
  -13.132235    18.301368    14.447721    12.243884 
    3.289425    18.300962    14.442673    12.232303 
  -7.9102837    18.300687    14.436448    12.221246 
   12.535986    18.300096    14.433133    12.208093 
   67.218094    18.300006     14.43127    12.195901 
  -32.739085    18.302605    14.427929    12.183326 
   13.983629    18.303894    14.425699    12.170053 
   -20.65518    18.305743    14.424649      12.1567 
  -20.269402    18.306765    14.420125    12.142249 
  -12.381203    18.306977    14.415319     12.12748 
   7.6196031    18.306693    14.411394    12.112662 
  -11.891405    18.306714    14.406251     12.09606 
   31.827677     18.30626    14.400041    12.078826 
   46.591261    18.307079    14.394326    12.060591 
  -13.964706    18.309761    14.388159    12.042667 
   25.633831    18.311885    14.381019    12.028096 
  -16.596438    18.315034    14.373358    12.014004 
   18.651439    18.317519    14.365155    11.998946 
  -36.758067     18.32075     14.35721    11.983675 
   40.616211    18.322511    14.351326    11.970454 
   7.0976932    18.325897    14.345268    11.957558 
   5.4669599    18.329566    14.338161    11.943353 
  -48.739155    18.333454    14.333118    11.928682 
   15.887573    18.335393    14.329131    11.915318 
  -3.9840712    18.337967    14.325892    11.902774 
  -9.9253285    18.340382    14.321356    11.890506 
  -14.786527      18.3424    14.318684    11.879704 
   42.896101    18.343826     14.31641    11.869661 
   54.489779    18.346968    14.314404    11.860071 
   61.252183     18.35229     14.31066    11.852473 
  -13.497195    18.360062    14.307233    11.843642 
  -37.645044    18.367293    14.304956    11.834807 
  -7.5299126     18.37302    14.301562    11.825182 
   2.5158101    18.378444      14.2991    11.816917 
  -5.7545926     18.38397       14.298     11.80909 
  -55.392996    18.389265    14.298335    11.801004 
  -41.616351    18.392345    14.297562    11.791363 
   16.887239     18.39376    14.295964    11.782558 
  -71.155927     18.39585    14.293965    11.774572 
   -10.05687    18.395095    14.294205    11.766943 
   74.330944    18.393937    14.293347    11.759496 
   2.1474549    18.395752    14.292658    11.751395 
   4.2092101    18.397653    14.292045    11.743958 
  -37.524643    18.399722    14.294414    11.738866 
  -6.2485718    18.400291    14.296836    11.734601 
  -24.161898    18.400609    14.298316    11.729296 
   15.942353    18.399962    14.297403    11.724426 
  0.89136336    18.399951    14.295464     11.71915 
  -47.651745    18.399977    14.293331    11.714673 
     22.3494    18.398096    14.289993    11.709834 
   42.276484    18.397109    14.285272    11.705715 
   44.464476    18.397814    14.281742     11.70039 
  -25.546301    18.400297    14.276603    11.695832 
  -19.595867    18.401758    14.270419    11.692897 
   54.398472    18.402435    14.262228    11.690477 
   -6.220282    18.405288      14.2534    11.685835 
  -58.887613    18.407893    14.247231    11.681353 
   6.6850657    18.408142    14.241437    11.675393 
   5.1893357    18.408658    14.236911     11.67081 
  -12.204513    18.409382    14.230921    11.666381 
    17.53033    18.409617     14.22513    11.662978 
   12.392052    18.410554    14.219329    11.659881 
  -21.453676    18.411987    14.213789    11.655195 
   49.464173    18.412561    14.208305    11.648358 
  -21.592277    18.415114    14.201642    11.641135 
  -14.201954    18.416804     14.19428    11.634674 
   27.078161    18.417925    14.186971    11.629979 
  -12.868564    18.420129    14.179522    11.624228 
   12.328519    18.421819    14.171859    11.619853 
    15.74557    18.424002    14.166421     11.61582 
  -45.272159    18.426814    14.161495    11.610054 
  -15.527755    18.427816    14.158075    11.605383 
  -35.054508    18.428196    14.154177    11.602253 
  0.61063409    18.427175    14.148816    11.599567 
   20.910453    18.426178    14.142211    11.596311 
  -2.0767022    18.426017    14.135249     11.59509 
  -21.172598    18.425773    14.128505    11.593451 
   43.370035    18.424682    14.123536    11.592348 
   26.576271    18.425327    14.119321    11.592309 
  -11.466026    18.427034    14.117335    11.591906 
   35.717609    18.428282    14.117652    11.590559 
  -21.007342    18.430959    14.118644    11.587439 
   10.726187    18.432796    14.121522     11.58432 
   54.210267    18.435062       14.125    11.581366 
   52.510223    18.439497    14.127976    11.578673 
  -17.631654    18.446031    14.134496    11.575563 
   -33.93651    18.451861    14.139539    11.571856 
  -18.631959    18.456333     14.14487    11.569488 
   24.914791     18.46006    14.151032    11.567743 
   3.6191143    18.464783    14.155543    11.569275 
   4.9165231    18.469651    14.162263    11.571349 
  -9.9165108    18.474716    14.168614    11.573018 
   23.989514    18.479384    14.173114    11.573638 
  -14.065565    18.485012     14.17697    11.576507 
   24.480864    18.490077    14.180207    11.580003 
   16.596364    18.496121    14.184181    11.583499 
  -22.647254    18.502829    14.187931    11.585776 
  -42.773023    18.508631    14.191007    11.589515 
   14.094849    18.512723    14.195883     11.59196 
  -71.238304    18.517378    14.199903    11.593919 
   24.189175    18.519184    14.203286      11.5951 
   8.5344292    18.521957    14.204506     11.59677 
  -9.8802758    18.525071    14.206653    11.598732 
   31.330608    18.527791    14.207678    11.598633 
   5.3356928    18.531763    14.209538     11.59793 
  -31.942206    18.535949    14.210383    11.596792 
  -12.474007    18.538858    14.212342    11.597465 
   -46.37563    18.541267    14.215324    11.598769 
  -7.6145564    18.541821    14.219139    11.599377 
   -16.28293    18.542071    14.222304    11.597425 
   31.145375    18.541669    14.225192     11.59729 
   51.665516    18.542514     14.22898    11.597692 
   17.233006    18.545425    14.231955    11.597885 
   8.5221278    18.549025    14.235873    11.598189 
   1.8480155    18.552966    14.239743    11.597695 
   17.042247    18.556981    14.245122    11.598846 
   38.220333    18.561677    14.251219    11.601091 
   9.9014587    18.567903    14.256479    11.602342 
  -24.157195    18.574525    14.262946      11.6039 
   -12.20177     18.58018    14.271926    11.606207 
   50.507767    18.585347     14.28049    11.609707 
  -29.868949    18.592534    14.288659    11.613255 
 -0.92775616    18.598527    14.297082    11.615791 
   49.585562    18.604483    14.303425    11.617657 
   13.836508    18.612422    14.310261    11.619451 
  -28.115127    18.620914    14.318306    11.621823 
   1.7013084    18.628282    14.326252    11.622009 
  -3.5148639    18.635718    14.335126    11.624341 
   62.316668    18.643014    14.346721    11.625775 
   43.777582    18.652802    14.357489    11.627746 
   5.4219953    18.664341    14.367378    11.631693 
  -7.9363247    18.676097     14.37661    11.635177 
   26.847205    18.687535    14.385896    11.639199 
   19.380946    18.700048    14.396324    11.643799 
  -18.407368    18.713336    14.407325    11.646874 
  -36.024165    18.725887    14.417828    11.647106 
   29.607426    18.736997     14.42895    11.648866 
  -32.469404    18.749292    14.439555    11.649946 
  -20.126732    18.760288    14.449833    11.652651 
  -26.912243    18.770479    14.461828    11.654636 
  -4.8755861    18.779593    14.475108    11.654776 
   44.845295    18.788513    14.487424    11.655441 
  -49.169518    18.799226    14.502163    11.656786 
   -23.61659    18.807972    14.516334    11.654957 
    2.245391    18.815774    14.530282    11.652207 
  -96.452369    18.823666    14.543908    11.650084 
   8.0626428    18.827699    14.558349    11.647011 
   23.199837    18.832055    14.571532      11.6445 
   28.545471    18.837339    14.584434    11.640411 
  -23.044245    18.843765    14.597424     11.63734 
   21.064396    18.849269    14.610672    11.633432 
  -57.392583    18.855615    14.622564    11.630987 
   90.453527    18.859666    14.633925     11.62952 
   -18.28853    18.867335     14.64303    11.630202 
  -45.688443    18.874273    14.652125    11.632999 
  -84.679366    18.879383     14.66204    11.637649 
  -15.155495    18.881105    14.671328    11.640629 
  -50.501937    18.882222    14.680426    11.642757 
    8.454464    18.881318    14.689118    11.645763 
  -4.3117426    18.880753    14.698025     11.64951 
  -4.2757021    18.880015    14.705881    11.652192 
   49.119793    18.879106    14.715088    11.654225 
  -13.799687    18.880162    14.725485    11.657022 
    37.45506    18.880666    14.735352    11.661161 
   24.343226    18.882668     14.74476    11.663279 
   15.238099    18.885644    14.753685    11.663058 
  -53.892648     18.88923    14.763118    11.661104 
   38.474078    18.890659    14.773196    11.657775 
   57.006687    18.893628    14.783052    11.652669 
  -3.6429481    18.898877    14.791583    11.649578 
   20.063852     18.90398    14.801038    11.643819 
   16.839422    18.909886    14.808572    11.636933 
  -49.209554    18.916465    14.814431    11.631315 
   10.157201    18.921076    14.821009    11.624869 
  -27.895698    18.926094    14.829118    11.618686 
  -45.614736    18.929995     14.83807    11.612054 
   5.9302413    18.932072     14.84774    11.602951 
  -53.954472    18.934386    14.857751    11.591403 
   15.683857    18.934542    14.865795    11.579784 
   26.851512    18.935325     14.87511     11.56898 
   23.980072    18.937182    14.882979    11.557545 
   2.3492184    18.939999    14.892149    11.545689 
  -55.899304    18.942909      14.9005    11.534789 
  -36.208099    18.943584    14.909852    11.522974 
   38.748542     18.94281    14.919341    11.513622 
  -99.769153    18.943586    14.928067    11.505595 
   21.453425    18.940371     14.93692    11.496009 
  -24.400507    18.938015    14.946693    11.490624 
   12.401138    18.934682     14.95649    11.484512 
  -8.8790267    18.931846    14.965832     11.48013 
   5.3091628    18.928654     14.97442    11.473388 
  -59.565757    18.925675    14.984883    11.465596 
   9.0173362    18.920313    14.993495    11.456848 
  -14.564131    18.915312     15.00259    11.446538 
  -38.254322    18.909728    15.009791     11.43755 
  -38.758272    18.902614    15.013433    11.429482 
   8.4926611     18.89395    15.016156    11.422075 
   44.750486    18.885625    15.021886    11.416513 
  -16.790016     18.87909     15.02721    11.412165 
   11.438081    18.871884    15.033813     11.40526 
  -9.8406516    18.865136    15.041072    11.398121 
   53.857454    18.857993    15.048003      11.3922 
   36.660786    18.853005    15.053075    11.386963 
   27.461122    18.849484    15.059053    11.379402 
   38.907583    18.847061    15.064909    11.373277 
   22.442762    18.846194    15.072128    11.366623 
  -52.624474    18.846225     15.07788    11.363254 
  -8.4625659    18.844151    15.080703     11.35967 
    77.86993    18.841738    15.083409    11.356813 
  -73.469208     18.84244    15.087314    11.354438 
    4.185005    18.840204    15.090684    11.350729 
  -7.5425818    18.838135    15.092726    11.346041 
   16.600833    18.835764     15.09659    11.340741 
    30.10477    18.834057     15.09878    11.334943 
 -0.25437477    18.833554    15.100799    11.329013 
   43.581758    18.833041     15.10328     11.32364 
   39.775144    18.834272    15.104145    11.317378 
   30.102986    18.837093    15.104393    11.312044 
  -51.043342    18.841119    15.106354    11.306285 
  -31.255784    18.843103    15.107652    11.300088 
  -12.380803    18.843837    15.109107    11.292764 
  -8.7663859    18.844075     15.11041    11.285512 
  -19.575154    18.843963    15.113301    11.275528 
   37.461897    18.843067    15.118688    11.268827 
   -25.69238    18.843671    15.121907    11.262814 
   43.369038    18.843246    15.123645    11.255859 
   13.882548    18.844556    15.125897    11.247412 
  -2.6280877    18.846422    15.129025    11.238901 
  -16.903897    18.848182    15.132178    11.230226 
  -64.766758    18.849267    15.134889    11.223398 
  -5.6424117     18.84776    15.137021    11.214859 
   10.448772    18.846028    15.139348    11.207836 
  -8.3217839    18.844714    15.142249    11.200675 
   -3.163768    18.843067    15.145773    11.193463 
   23.689342    18.841294    15.149309    11.186252 
  -6.5054286    18.840468     15.15114    11.178366 
   25.791926    18.839381    15.153575    11.171879 
  0.32092533    18.839327    15.157612    11.163591 
  -41.516716    18.839285    15.160719     11.15735 
  -8.9811349    18.837583    15.163233    11.150538 
  -44.088717    18.835521    15.166129    11.146393 
  -14.831445    18.831696    15.166843    11.143301 
[...]
   8.1744018    27.909441    24.669257    7.8811964 
   69.103044    27.898577     24.65408    7.8798546 
   159.37938    27.890476    24.637712    7.8798212 
   203.56355    27.888751    24.621901    7.8799545 
    112.4891    27.895169    24.607033    7.8789297 
   16.272864    27.906085    24.591037    7.8775178 
  -101.11826    27.917653    24.575086    7.8746977 
  -143.72308    27.925176      24.5574     7.872681 
   -199.5272    27.926951     24.54035     7.871821 
  -45.932934    27.920744     24.52307    7.8725726 
   61.894832    27.912699    24.505608    7.8735479 
   51.453274    27.907131     24.48503     7.875076 
   151.21501    27.903621     24.46529    7.8759842 
   112.94842    27.906159    24.449138    7.8759654 
   15.544487    27.913215    24.431355    7.8755997 
   -91.43403    27.920893     24.41336    7.8778671 
  -144.69135    27.924914    24.398445    7.8780424 
  -105.49106    27.923147    24.382754    7.8771822 
  -46.931465     27.91716    24.366189    7.8748404 
   122.67654    27.909296    24.354078    7.8731212 
   87.675555    27.906339    24.342935    7.8711214 
    29.51053     27.90689     24.33334    7.8702977 
   57.504257     27.90862    24.324389    7.8702149 
  -51.819069    27.912651    24.315643    7.8713107 
  -24.625911    27.914609    24.308642    7.8720644 
  -47.959422    27.915582    24.303314    7.8699087 
  -52.775985    27.914636    24.300351    7.8676741 
  -18.701146     27.91158    24.297292    7.8660259 
   59.147051    27.907775    24.297337    7.8631262 
   70.819394    27.906337    24.299367    7.8606647 
   46.104987    27.907731    24.303856    7.8565952 
  -22.396248    27.910969    24.308695    7.8521914 
   14.926145    27.913312    24.312516    7.8474623 
  -26.596891    27.916251    24.316865    7.8439065 
  -29.395086    27.918127    24.319396    7.8395866 
  -24.349851    27.918827    24.321058    7.8357523 
  -87.632042    27.918553    24.321711    7.8319468 
  -76.459415    27.914773    24.322447    7.8282392 
   54.913623    27.907936    24.324439    7.8240831 
   91.265394    27.903294    24.323769    7.8196415 
   83.886653    27.902304    24.324545    7.8156077 
   26.262569    27.904669    24.325593    7.8118636 
  0.58815775    27.908084    24.327264    7.8084254 
   -31.94511    27.911523     24.32832    7.8042532 
  -93.266015    27.913684    24.327374    7.8023255 
   1.3435966    27.912114    24.324866     7.801407 
  -24.692863    27.910599    24.320822     7.801342 
    31.40422    27.908095    24.318045    7.8003619 
   1.2008163    27.906848    24.315117    7.7987525 
   32.968267    27.905648    24.308986    7.7971823 
   69.292898    27.905768    24.302483    7.7961313 
  -56.865066    27.908659    24.293226    7.7958197 
  -25.456848    27.909275    24.282649    7.7944601 
   26.724209    27.908874     24.27317    7.7913331 
  -13.800345    27.909541    24.262314    7.7882351 
   3.3524351    27.909656    24.252894    7.7865627 
   19.241845    27.909905     24.24266    7.7833952 
   2.6863557    27.910924    24.234976    7.7796452 
   22.327863    27.912051    24.228621    7.7750595 
  -5.6829031     27.91407    24.225172    7.7706695 
  -58.073523    27.915862    24.223228    7.7651915 
  -78.795881    27.915332    24.222811    7.7607313 
  -49.214214    27.911649     24.22341     7.757933 
  -3.0593108    27.905998    24.224057     7.754116 
   92.523542    27.900224    24.225615    7.7508261 
   165.07087    27.898152    24.230203    7.7456116 
   94.143335    27.902682     24.23293    7.7432387 
  -27.245669    27.910978    24.233818      7.74032 
  -105.92091    27.918184     24.23743    7.7373575 
  -131.76837    27.921154    24.239839    7.7358932 
  -77.999019    27.918852    24.242825    7.7346086 
  -3.3304771    27.913431    24.246596    7.7344398 
     57.9106    27.907876    24.248181    7.7327085 
   35.378401    27.904638     24.25052    7.7305768 
   89.802446    27.902815    24.252364    7.7284969 
   65.551158    27.904584     24.25287     7.725318 
   54.925602    27.908975    24.254021    7.7233684 
  -90.721368    27.915563    24.254825    7.7212664 
  -114.52668    27.918523    24.254499    7.7200162 
  -122.34556    27.916901    24.253067    7.7210276 
  -31.493076    27.910385    24.250163    7.7226875 
   22.155859     27.90261    24.244972    7.7253431 
   147.37688    27.895721    24.236939     7.730286 
   166.88863    27.894727    24.227863    7.7368735 
    69.97369    27.900409     24.22002    7.7440775 
   79.868699    27.908889    24.215425    7.7529946 
   -173.2044    27.920564    24.213101    7.7632866 
  -129.45579    27.925311    24.210393    7.7731005 
  -124.84012     27.92488    24.209396    7.7826309 
  -98.328832    27.919455    24.207273    7.7932516 
   13.136803    27.910097    24.202377    7.8013483 
   102.51286    27.901265    24.197286    7.8090742 
   101.94418    27.896533    24.191225    7.8152808 
   121.84722    27.895879    24.184842    7.8224435 
   173.05237    27.900099     24.17935    7.8322003 
   18.173905     27.91124    24.176026    7.8405592 
  -183.17715    27.923109    24.175371    7.8459975 
  -194.35367    27.927651    24.175272    7.8511722 
  -108.32509    27.924418    24.173113     7.854322 
  -164.06693    27.916853    24.171001    7.8561529 
   51.738325    27.902725    24.170654    7.8554141 
   171.29009    27.890666    24.170955    7.8518088 
   153.97038    27.885459    24.172925    7.8469047 
   201.38417    27.886411    24.175438     7.841942 
   96.898916    27.895418    24.178182     7.836784 
  -6.9997125    27.908301    24.181228    7.8299584 
  -282.61937    27.920904    24.181451    7.8207159 
  -129.46463    27.922203    24.180982    7.8113196 
  -21.998981    27.918322    24.180562    7.8023559 
   10.354515    27.913562    24.179168    7.7898231 
   59.335146    27.909216    24.177417    7.7762432 
   46.631928    27.907244    24.176699    7.7621241 
   42.180635    27.907136    24.174505    7.7499081 
    34.90582    27.908716    24.170542    7.7411005 
  -82.830345    27.911692    24.165314    7.7336281 
   -100.5115    27.911355     24.16001    7.7265897 
  -16.902892    27.906998    24.153599    7.7237281 
   129.96094    27.901964    24.146807    7.7216495 
   105.82042    27.902129    24.140532    7.7197505 
   -34.54358    27.906527    24.135707    7.7180845 
  -120.58065    27.909542    24.128639    7.7185581 
  -45.466568    27.907735    24.119479    7.7195286 
   42.479689    27.904109    24.109402    7.7236039 
   20.647244    27.902182    24.098535    7.7273654 
   119.44018    27.901081    24.087848    7.7303128 
  -72.461776    27.904758    24.076512    7.7339249 
  -44.221497    27.905536    24.066695    7.7369373 
   57.569162    27.904545    24.060756    7.7371612 
   18.496253    27.905857    24.057804     7.736607 
   -24.09823    27.907909    24.056124    7.7352972 
  -11.293049    27.908997    24.053856    7.7325283 
  -97.339131    27.909634    24.048942    7.7281773 
   26.512169    27.906376    24.041089    7.7243519 
    4.747371     27.90418    24.035206    7.7191751 
  -39.340491    27.902173    24.031117    7.7134385 
   146.15132    27.898592     24.02732     7.705583 
   64.068719    27.900858    24.025167    7.6983686 
   4.2180675    27.905686    24.024744     7.691235 
  -49.857743    27.910683    24.025021    7.6849114 
  -124.54235    27.913686    24.026601     7.677945 
  -165.53011    27.911707    24.031659    7.6719556 
  -55.616861    27.903107    24.036789    7.6666504 
  -16.894994    27.892282    24.041488    7.6614768 
   73.611877    27.880781    24.045274    7.6581766 
   189.35372    27.872225    24.049203    7.6557563 
   183.57666    27.871243    24.052144     7.652885 
   194.74461    27.877604    24.054959     7.649776 
    141.7017    27.891755    24.054605    7.6484148 
  -146.27522    27.911574    24.051793    7.6486822 
  -275.11279    27.925541    24.047815    7.6484546 
  -242.91534    27.928505    24.042852    7.6494174 
  -178.65632    27.921751    24.035902    7.6540135 
   6.6860223    27.907852    24.030126    7.6595872 
    65.11314     27.89422    24.024046    7.6664069 
   76.918718    27.883192    24.019098    7.6705641 
   181.32422    27.875242     24.01456    7.6750518 
   164.77869    27.874544    24.010291    7.6800324 
   234.56087    27.880437    24.007494    7.6870778 
   111.59063    27.895713    24.003402    7.6924506 
  -85.985711    27.915452    23.999356    7.6967929 
  -374.92447    27.931752    23.993585    7.7022731 
  -353.28102    27.933055    23.986243    7.7088901 
  -122.85313    27.920227     23.97895    7.7175421 
   81.777864    27.902484    23.967689     7.726977 
   153.02039    27.888013    23.955749    7.7378294 
   154.30073    27.879663    23.940457    7.7477486 
    181.3009    27.877484    23.925159    7.7564682 
   129.94075    27.882558     23.91004    7.7643064 
   100.22401    27.892829    23.897295    7.7715881 
  -2.3369223    27.907109    23.885068    7.7812133 
   -166.4696    27.921296    23.874534    7.7924926 
  -383.94068    27.928824    23.867565    7.8047906 
  -133.40703    27.920994    23.858434    7.8167411 
   106.73301    27.907828    23.850731    7.8294143 
   112.19407    27.898932    23.844558    7.8408394 
   33.178937    27.894523    23.838362     7.849329 
    31.94951    27.891441    23.833832    7.8553699 
   63.304478    27.889637     23.83237    7.8608625 
    109.3308    27.890366    23.833315     7.863609 
   134.70537    27.895467    23.836473    7.8639376 
   7.2109481    27.905957    23.841409    7.8607308 
  -187.38032    27.916735    23.844088    7.8586763 
  -278.94972    27.920018     23.84672    7.8575715 
   25.514795    27.912144     23.85067    7.8569782 
  -16.056082    27.905289    23.856622    7.8556664 
   35.446371    27.897793    23.862514    7.8533308 
   69.934266    27.891714    23.870391    7.8505364 
   96.547562    27.888433    23.878793    7.8481755 
   150.59207    27.889013    23.885536    7.8461161 
    108.7397    27.895618    23.891409    7.8451556 
   3.7993624    27.906571    23.896165    7.8410913 
  -131.77147    27.917677    23.899024    7.8370816 
  -280.50422    27.923512    23.902166     7.835426 
  -80.460072    27.918127     23.90678    7.8337227 
     15.5111    27.909523    23.911737    7.8330034 
   49.197589     27.90154    23.915719    7.8335993 
   29.010226    27.895525    23.918015    7.8346653 
   113.03896     27.89067    23.917427    7.8347039 
   151.88559    27.890337    23.915851    7.8347467 
   135.02338    27.896079    23.915269    7.8337495 
  -25.740864    27.907222    23.914708    7.8319895 
  -127.74881    27.917335    23.913566    7.8278653 
  -145.26575    27.922339    23.912173     7.825998 
  -38.163829    27.921532    23.912323     7.826818 
  -80.379267    27.919198     23.91095    7.8270293 
    36.35467    27.913649     23.91021    7.8262321 
   -17.45808    27.909555    23.909289    7.8241108 
    110.5246    27.904761    23.907899    7.8224147 
   83.203254    27.904389    23.905862    7.8203799 
   106.58292    27.907346    23.905793     7.819523 
  -10.714904    27.914565    23.905297    7.8202767 
  -146.06692    27.921356    23.906177    7.8216483 
  -159.96101    27.922304    23.906444    7.8213052 
  -85.516076    27.916854    23.906822    7.8188701 
   63.834493    27.907983    23.907545    7.8151705 
   49.981977    27.901665    23.908477    7.8112976 
   97.762377    27.897347    23.910508     7.807787 
    88.35922    27.896939    23.913806    7.8047113 
   142.46848    27.900066    23.918916    7.8019875 
   43.390168    27.908891    23.922006    7.8004978 
  -165.86936    27.919452    23.923284     7.799762 
  -163.14653    27.923378    23.926753    7.8012401 
  -84.828546    27.920778    23.932576    7.8038999 
  -45.904301    27.914786    23.938683    7.8056652 
   95.004707    27.906957    23.946129    7.8049215 
   90.460782    27.902928    23.955585    7.8044222 
   114.86936    27.902517    23.967003     7.803411 
   49.808092    27.906702     23.97728    7.8016021 
  -82.342869    27.912878    23.987227    7.8006672 
  -96.791033    27.915761    23.997455    7.8003071 
  -8.1876604    27.914773    24.007132    7.8006756 
   40.240509    27.913457    24.016935    7.8016812 
   47.830466     27.91375    24.028156     7.802978 
  -45.606631    27.915957     24.03856    7.8061781 
  -6.9768738    27.916339    24.048586    7.8090978 
   5.3126784    27.916442     24.05782    7.8122959 
  -31.088288    27.916758    24.065435    7.8151035 
  -9.7395779    27.915831    24.073459    7.8173007 
   27.743034    27.914513    24.080336    7.8209687 
   13.244293    27.914306     24.08453    7.8234092 
  -10.977557    27.914628    24.087901    7.8245038 
  -17.345599    27.914511     24.08798    7.8239968 
  -8.2970615      27.9137     24.08768    7.8235866 
  -10.728104    27.912558    24.083333    7.8231042 
   60.906589    27.910986    24.079646    7.8227416 
  -30.706483    27.911851    24.072663    7.8193037 
   14.598176    27.911487     24.06481    7.8144008 
   29.114638    27.911707    24.055327    7.8105347 
   17.865714    27.913092    24.046249     7.806889 
  -65.439246    27.915191    24.035714    7.8031109 
  -69.847212    27.914673    24.028555    7.7979595 
   20.885332    27.911361     24.02113     7.793015 
  -58.075287    27.908885    24.015342    7.7881542 
   61.092938    27.904085    24.009901    7.7856106 
   99.228151    27.901729      24.0064    7.7843222 
  -20.588213    27.903342    24.003372    7.7812623 
   18.533592    27.904132    23.997419    7.7814308 
  -4.4919642    27.905663    23.991663    7.7828908 
   12.851641    27.907015    23.985885    7.7839049 
  -1.9968685     27.90888    23.981246    7.7850165 
  -90.984142    27.910666    23.974512    7.7881965 
   7.8865109    27.908812    23.967999    7.7948053 
    19.70112    27.907273    23.961712    7.7997701 
   50.275339    27.906523    23.956696    7.8055585 
  -16.309785    27.907784    23.950096    7.8120725 
  -52.674474    27.908392    23.946701     7.819558 
   49.005106    27.906893    23.942764    7.8274756 
   36.271102    27.907355    23.939738     7.835634 
  -15.866494    27.909267    23.938305    7.8443827 
  -59.287617    27.910545    23.936179    7.8529676 
  -41.041309    27.909451    23.932309    7.8630836 
   43.566426    27.906716    23.928248    7.8729726 
   37.308182    27.905723    23.923549    7.8833054 
   97.244132    27.906223    23.918419    7.8929114 
   8.6865898    27.910612    23.915107    7.9048686 
  -121.11291    27.915349    23.910795    7.9173851 
  -22.214042    27.915241    23.908809    7.9289828 
  -21.252567    27.914245    23.908222    7.9403248 
  -28.873299    27.912398    23.907776    7.9514212 
    8.462383    27.909397     23.90896    7.9635648 
  -33.828191    27.906734    23.909295    7.9734417 
   57.889703    27.902718    23.909848    7.9838955 
   85.519731    27.901018    23.911144    7.9915025 
   116.59512    27.902738    23.913351    7.9979508 
  -35.077394    27.909122     23.91865    8.0029156 
  -115.00217    27.914103    23.922525    8.0067932 
  -41.536627    27.914484    23.927888    8.0093311 
  -24.212182    27.913204    23.933728    8.0076653 
  -29.282244    27.910955    23.941272    8.0032325 
   -92.51029    27.907535    23.949403     7.999859 
   79.678812    27.900414    23.957776    7.9961479 
   105.46025    27.896481    23.966485    7.9923287 
   151.66882    27.896766    23.974625     7.986542 
   94.324713    27.903117    23.980395    7.9817877 
  -35.900294    27.913242    23.985181    7.9756928 
  -177.11182    27.921931    23.989481    7.9694131 
  -161.12537    27.923535    23.995086    7.9617972 
  -80.978959    27.918694    23.999915    7.9532938 
  -36.133715    27.910614    24.004385     7.943187 
   26.816223    27.901089    24.009763    7.9340185 
   126.83348    27.892636    24.015312    7.9248153 
   119.51206    27.889257    24.019034    7.9154142 
   204.90074    27.890658    24.023422    7.9063145 
   118.13624    27.900255    24.028014    7.8978051 
  -35.818083    27.914578    24.031536     7.888066 
  -277.23278    27.927468     24.03324    7.8798686 
  -218.56105    27.929268    24.034059    7.8690024 
  -72.484004    27.922326    24.036218    7.8601866 
  -21.871125    27.912485    24.038091    7.8525248 
   66.364107    27.901769    24.037992    7.8452105 
   131.94998    27.893708     24.03659     7.837829 
   215.28275    27.890924     24.03537    7.8311119 
   195.05046    27.896752    24.033441    7.8236053 
   34.609394    27.910382    24.031325      7.81797 
  -212.34181    27.925396    24.030643    7.8138512 
  -278.75887    27.931917    24.031316    7.8126193 
  -142.02716    27.927287    24.031928    7.8116798 
  -9.0301679    27.916976     24.03253    7.8103633 
  -34.658683    27.906304    24.033786    7.8099571 
   52.199092    27.894245    24.031669     7.811455 
   132.96988    27.884275     24.03028    7.8132178 
   259.21624    27.879623    24.027349    7.8154466 
   233.37383     27.88534    24.024449    7.8165227 
   7.0275486    27.900392    24.020866    7.8150807 
  -227.11739    27.915725    24.018107    7.8148768 
  -181.58086    27.921973    24.015944    7.8148873 
  -118.26642    27.920958    24.014092     7.813423 
  -106.43418    27.915213    24.012858    7.8099641 
  -64.852057     27.90521     24.01258    7.8080075 
   80.950972    27.892613    24.010725    7.8078162 
   148.52739    27.883254    24.009824    7.8066899 
   277.38046    27.879836    24.009155    7.8039382 
   196.01574    27.887513    24.009598    7.8043808 
   60.564397    27.903031    24.008973    7.8025803 
  -199.15496    27.920972    24.008026    7.7986786 
  -261.70778    27.930946    24.005042    7.7942831 
   -225.8441    27.930452     23.99954    7.7877729 
  -178.00054    27.920924    23.992953    7.7808841 
   67.759873    27.904277    23.984371    7.7747713 
   175.59501    27.890339    23.974357    7.7687434 
   262.97973    27.883426    23.964088    7.7625345 
    156.5718    27.887031    23.954506    7.7556983 
   65.898771      27.8969    23.944285    7.7476021 
  -141.02373    27.909404    23.932842      7.73853 
  -154.57322    27.916268    23.924324    7.7280392 
  -100.86092    27.916948     23.91773    7.7171359 
  -46.394058    27.913594     23.91155    7.7056993 
  -40.347787    27.908385    23.906309    7.6935867 
   27.540663    27.901561    23.901692    7.6830184 
   74.894477    27.895839    23.897073    7.6725526 
   80.846913    27.893113    23.888472    7.6616385 
   130.17255    27.893621    23.879005    7.6514943 
   63.768402    27.899336    23.870487    7.6408058 
  -63.932023    27.907601    23.860716     7.631154 
  -100.46607    27.913309    23.851237    7.6243917 
Loop time of 300.37 on 4 procs for 50000 steps with 8887 atoms

Performance: 287645.605 tau/day, 166.462 timesteps/s
99.9% CPU use with 4 MPI tasks x no OpenMP threads

MPI task timing breakdown:
Section |  min time  |  avg time  |  max time  |%varavg| %total
---------------------------------------------------------------
Pair    | 182.64     | 220.81     | 258.48     | 247.5 | 73.51
Bond    | 0.0064681  | 0.011086   | 0.019714   |   5.0 |  0.00
Neigh   | 30.465     | 30.491     | 30.522     |   0.4 | 10.15
Comm    | 9.4588     | 46.961     | 84.902     | 533.6 | 15.63
Output  | 0.69706    | 0.75073    | 0.84461    |   6.6 |  0.25
Modify  | 0.6126     | 0.79667    | 0.97094    |  17.6 |  0.27
Other   |            | 0.5451     |            |       |  0.18

Nlocal:    2221.75 ave 2670 max 1771 min
Histogram: 2 0 0 0 0 0 0 0 0 2
Nghost:    5508.75 ave 5954 max 5066 min
Histogram: 2 0 0 0 0 0 0 0 0 2
Neighs:    341004 ave 398621 max 284896 min
Histogram: 2 0 0 0 0 0 0 0 0 2

Total # of neighbors = 1364015
Ave neighs/atom = 153.484
Ave special neighs/atom = 0.00540115
Neighbor list builds = 5000
Dangerous builds = 5000
Total wall time: 0:05:00
