LAMMPS (17 Nov 2016)
Reading data file ...
  orthogonal box = (0 0 0) to (60 30 30)
  2 by 1 by 2 MPI processor grid
  reading atoms ...
  8887 atoms
  scanning bonds ...
  1 = max bonds/atom
  reading bonds ...
  9 bonds
Finding 1-2 1-3 1-4 neighbors ...
 Special bond factors lj:   0          0          0         
 Special bond factors coul: 0          0          0         
  2 = max # of 1-2 neighbors
  2 = max # of 1-3 neighbors
  4 = max # of 1-4 neighbors
  6 = max # of special neighbors
10 atoms in group polymer
1 atoms in group first
Neighbor list info ...
  1 neighbor list requests
  update every 1 steps, delay 10 steps, check yes
  max neighbors/atom: 2000, page size: 100000
  master list distance cutoff = 3.3
  ghost atom cutoff = 3.3
  binsize = 1.65, bins = 37 19 19
Setting up Verlet run ...
  Unit style    : lj
  Current step  : 0
  Time step     : 0.02
Memory usage per processor = 4.13948 Mbytes
v_ftotal c_com[1] c_com[2] c_com[3] 
   143.78628         17.5           15           15 
   135.78321    17.503701    15.003346    15.011499 
   81.509484    17.512834    15.006083    15.020866 
   57.652828    17.525227    15.006184    15.027397 
   151.15226    17.539927    15.007341    15.032373 
   129.50934    17.560672    15.008669    15.038839 
   133.49603    17.586598    15.010315    15.048108 
   112.11101    17.617863    15.010688     15.05747 
   127.74567    17.653613    15.010863    15.067041 
   70.547568    17.694473    15.012696     15.07448 
   61.732083    17.738155    15.015772    15.081815 
   67.325248    17.784306    15.019304    15.089838 
   137.07023     17.83315    15.024232    15.096769 
   62.019852    17.887477    15.028233    15.104449 
    76.26083    17.944285    15.032112     15.11321 
   94.875425    18.004143    15.037258    15.119618 
    33.46313    18.067796    15.041142    15.127679 
   97.892427    18.132787    15.044469    15.134162 
   71.607255    18.201695     15.04919    15.140204 
   92.132289    18.273466    15.052203    15.146433 
   60.246533    18.348923    15.053507    15.154722 
   59.238631     18.42679    15.053532    15.161668 
   112.44859    18.507026    15.054942    15.169013 
   18.499589     18.59176    15.054978    15.178436 
   57.475424    18.677235    15.054513    15.187368 
   23.940521    18.765008    15.053119    15.195855 
   43.086936    18.853739    15.051483    15.204459 
   15.261926    18.944193    15.052556    15.211643 
   37.799031    19.035258    15.056591    15.219651 
   31.634066    19.127835    15.057493    15.227768 
   28.623955    19.221677     15.05865     15.23484 
   88.094007    19.316664    15.059917    15.241387 
   76.405844    19.415175     15.05948    15.248001 
   17.688167    19.516742     15.05705    15.257154 
   95.778073    19.619017    15.053933    15.265268 
   16.241145    19.725122    15.051353    15.273405 
   33.763463    19.831878    15.049799    15.280312 
   39.908374    19.939984    15.050363    15.287181 
    18.92732    20.049686     15.05391    15.292781 
   33.398302    20.160145    15.057717    15.299249 
 -0.90355156    20.271941    15.061312    15.303975 
     36.5573      20.3837    15.063342    15.307645 
   71.516219    20.496921    15.065752    15.311843 
   7.9180978    20.613003    15.068271    15.316138 
   56.648261    20.729402    15.072118     15.31991 
  -5.4848689    20.848067    15.076112    15.322848 
   49.624776    20.966512     15.07861    15.324441 
   43.119495    21.086943    15.080029    15.327306 
-0.097749248    21.209098    15.081468    15.328813 
   2.3567462    21.331249    15.081969    15.330383 
    2.400801    21.453494    15.080885    15.333012 
   24.062681    21.575836    15.079907    15.335923 
   20.317539     21.69914    15.079079    15.338381 
   40.225313    21.823257    15.077974     15.34108 
   80.040958    21.948982    15.076178    15.344155 
   8.3680555     22.07791    15.073447    15.346426 
   3.9353207    22.207172    15.070559    15.349841 
   6.1965265    22.336591    15.069351    15.354395 
   48.665126    22.466259    15.067113    15.358158 
  -10.983043    22.597873    15.063053      15.3612 
   21.096065    22.729047    15.059064    15.363309 
  -52.957498    22.861066    15.055629    15.364199 
   6.8473911    22.990966    15.053637    15.362724 
 0.076774878     23.12114    15.051673    15.360151 
 -0.53875021    23.251317      15.0494    15.357192 
   11.232105    23.381473    15.047464    15.355317 
  -14.259629    23.512078    15.046239    15.353468 
  -40.198218    23.642112     15.04454    15.352858 
  -28.705826    23.770539    15.043088    15.351948 
   9.6346732    23.897817    15.042827    15.351376 
   26.608785    24.025481    15.041183    15.353698 
  -5.7178982    24.154209    15.036668    15.357983 
   34.212674    24.282709     15.02893    15.361096 
   20.403892    24.412576    15.021315    15.364384 
   33.853956     24.54326    15.013531    15.366937 
  -50.794742    24.675299    15.005747    15.371927 
   2.8575547    24.805305    14.997546    15.379473 
  -13.706639    24.935426    14.990995    15.386946 
   29.231989    25.064998    14.983068    15.394766 
  -49.962602     25.19574     14.97596    15.401569 
  -188.94707    25.324483    14.968962    15.403941 
  -124.03593    25.445668    14.961479    15.389356 
  -12.367169    25.561892    14.951296    15.366025 
  -114.28894    25.677622    14.938814    15.344232 
   59.137763    25.788779    14.933077    15.329324 
  -94.284917    25.902302    14.939186    15.327637 
  -45.053703    26.012054    14.944722    15.328289 
  -20.477121    26.120004    14.948192    15.327547 
   41.624406    26.227134    14.948865    15.327653 
   2.4060648     26.33593    14.946933    15.327017 
  -33.999961    26.444822    14.943911    15.324346 
  -20.810481    26.552353     14.93877    15.321602 
  -103.74335    26.659053     14.93247    15.317878 
  -62.675036    26.761602    14.935107    15.309347 
  -38.043029    26.861645     14.94323    15.298841 
  -1.1807656    26.960166    14.950099    15.287619 
   14.843785    27.058639    14.954576    15.276367 
   5.6313027    27.157707    14.958663    15.265414 
   56.130187    27.256999    14.966904    15.261226 
  -59.501787    27.358537    14.982702    15.267151 
  -44.517339    27.457695    14.996968     15.27427 
   1.1446773    27.555072    15.009622    15.281484 
  -50.702659    27.652495     15.02163    15.289686 
   -30.44556     27.74789    15.032075    15.299231 
   -54.76188    27.842067    15.038259    15.308206 
  -62.111879    27.934053    15.042457    15.312538 
  -7.7791743    28.023555    15.043205    15.311692 
  -84.765826    28.112746    15.041146    15.305935 
   9.8049213    28.198546    15.038239    15.295229 
  -14.721971    28.284739    15.034808    15.286879 
   27.262968    28.370342    15.028045    15.281038 
   48.616969    28.457036    15.017275    15.278026 
    37.48075    28.545675    15.003131     15.27782 
  -34.530985    28.635813    14.988502    15.279858 
  -9.9831199     28.72457    14.974876    15.284595 
  -71.626441    28.812927    14.972462    15.292572 
  -53.032399    28.898419    14.975092    15.302618 
  -21.708274     28.98179    14.975883    15.315039 
   -353.9654    29.064293    14.977279    15.322556 
  -166.93749    29.132637     14.96898    15.316151 
  -36.811249    29.194304    14.953627    15.302133 
   -59.88176    29.254498    14.934389    15.289159 
   -53.19726    29.312297    14.912263    15.276819 
   91.011195    29.367968      14.8876    15.265274 
    206.9232    29.427279    14.864839    15.254861 
   5.4271616    29.494867    14.844509    15.243525 
  -73.379606    29.562673    14.822945    15.233545 
    -46.9724    29.627543    14.802716    15.224402 
   -113.9319    29.690535    14.790714    15.218502 
  -120.87234    29.748969    14.784517    15.211601 
   1.0063268    29.802568    14.779725    15.199376 
  -10.733646    29.856207    14.778525     15.17962 
  -108.85958    29.909417    14.777933    15.157569 
  -205.29121    29.958273    14.775649    15.129958 
  -120.83429    29.998917    14.767778    15.093861 
  -92.288551    30.034728    14.758759     15.05769 
  -13.850374    30.066847    14.746451    15.025633 
  -65.618343    30.098412    14.733625     14.99694 
   324.29248    30.127352    14.723557    14.971423 
  -5.5919942    30.169265    14.714106    14.950535 
  -126.08765    30.210953    14.701109    14.935573 
  -254.63064    30.247598    14.685704    14.921819 
  -136.95361    30.274058    14.676137    14.900029 
  -149.90286    30.295039    14.666293      14.8752 
  -101.02055    30.310025    14.656067    14.851689 
  -115.36145    30.320969    14.642799    14.830287 
   53.250989    30.327299    14.625761    14.814928 
   15.567975    30.335759    14.615049    14.810147 
   90.530572    30.344842    14.625351    14.810235 
   38.640096    30.357546    14.639784     14.81409 
  -21.066179    30.371796    14.650646    14.820804 
  -88.856504    30.385203    14.655877    14.827759 
  -100.88316    30.395056    14.659776    14.836262 
   -25.70529    30.400874    14.660218    14.844053 
  -91.646268    30.405663    14.658098    14.851058 
    0.955225    30.406786    14.656842    14.862004 
    -116.553    30.407948    14.654958    14.876415 
   25.094239    30.404448    14.657078    14.879447 
   301.37566    30.401951    14.663704    14.867966 
  -36.626393    30.411509    14.670447    14.855473 
  -77.817758    30.419602    14.671224    14.844221 
  -121.90049    30.424583    14.667791    14.834943 
  -2.6130997    30.424687    14.663669    14.826424 
   193.97897    30.424688    14.655717    14.819556 
     187.798    30.432447    14.649164    14.812982 
   2.9852834    30.447718    14.643441    14.809524 
  -6.4739617    30.463108    14.638899     14.80511 
  -52.369264     30.47824    14.633194    14.801315 
   -58.36992    30.491277    14.623427    14.798542 
  -52.998561    30.501979     14.60777    14.798304 
   38.598371    30.510561    14.590591    14.802155 
   37.093581    30.520687    14.573005    14.810426 
  -40.223171    30.532296    14.560621    14.816944 
    -158.907    30.542297    14.555168    14.822732 
  -77.618036    30.545942    14.558406    14.830857 
   13.798691    30.546481     14.56081    14.840376 
   137.24348    30.547573    14.563412    14.852991 
   241.14725    30.554155    14.563559    14.868523 
  -7.6377831    30.570382    14.562705     14.88505 
  -7.3374411    30.586304    14.562061    14.903864 
  -64.235912    30.601932     14.56358    14.919657 
  -88.003747    30.614991    14.567746    14.931274 
  -78.569122     30.62453    14.576602    14.935865 
  -97.362746    30.630926     14.58769    14.935038 
  -217.79503    30.633427    14.596154    14.929596 
  -160.93639    30.627217    14.599495    14.921153 
  -109.92766    30.614569    14.601955    14.913191 
  -64.808063    30.597524    14.603906    14.908189 
   87.388065    30.577887     14.60705      14.9061 
   199.95366    30.561745    14.607911    14.903322 
   29.948476    30.553602    14.608366     14.90084 
   30.489557    30.546656     14.60648    14.894605 
  -48.754041     30.54093    14.603878    14.885783 
  -77.157973    30.533254     14.60123    14.876234 
  -74.096824    30.522492    14.600268    14.870246 
  -26.423881    30.508765    14.599258    14.867822 
   136.49922    30.493982     14.59808    14.868662 
    224.8412    30.484659    14.596161    14.869035 
  -32.120439    30.484329    14.596331    14.865124 
   3.1991194    30.482714    14.602111    14.862296 
   86.927371    30.481228    14.612994    14.858382 
   5.4539077    30.483218    14.625113     14.85216 
  -111.81663    30.485427    14.633319    14.841912 
  -112.64176    30.483163     14.63589    14.828375 
  -102.87602    30.476394    14.632512     14.81334 
  -40.437747    30.465509    14.627731    14.800519 
  -116.44379    30.453007    14.621736    14.792905 
  -140.21539    30.435847    14.613594    14.793676 
  -90.791231    30.413078    14.607033     14.79912 
  -38.496941    30.386678    14.600824    14.807534 
  -34.117058    30.358738     14.59707    14.815963 
   86.054964    30.329433    14.596206    14.820661 
   182.49235    30.303571     14.60009    14.819796 
    360.4765    30.285008    14.600973    14.816054 
   212.93842    30.280864    14.593987    14.805199 
   39.192577    30.285238     14.58202    14.793183 
  -95.655474    30.291179    14.565899    14.783627 
  -136.92321    30.293294    14.548156     14.77379 
  -205.85887    30.289933    14.530336     14.76471 
  -165.73838    30.278336    14.523182    14.755873 
  -118.96596    30.260111    14.532188    14.747218 
  -66.211972    30.237127    14.546249    14.739751 
  -52.454161    30.211494    14.557553    14.734332 
  -28.620741    30.183763    14.563672    14.731497 
   59.010078    30.154887    14.562075    14.732405 
   128.83248    30.128372    14.556929    14.735413 
   233.57522     30.10701    14.548744    14.740645 
   192.16618    30.094991    14.538597    14.744722 
  -23.347458    30.090659    14.528223    14.753529 
  -77.149331    30.085392    14.519499    14.764971 
  -51.036542     30.07704    14.514877    14.775074 
   -74.96265    30.066646    14.516228    14.776842 
  -148.13001    30.053254    14.519849    14.768165 
  -62.185973    30.033937    14.516446    14.755081 
  -138.34219    30.012132    14.511471    14.742004 
  -54.031671    29.984793     14.50247    14.731915 
   18.725017    29.955294    14.490055    14.722936 
   42.938941    29.926543    14.473853    14.713783 
   140.58062     29.89951    14.456529     14.70213 
   201.73469      29.8781    14.447156    14.687617 
   829.29364    29.864759    14.449933    14.682275 
   179.99754     29.88459    14.454194    14.684717 
   7.0187247    29.911621    14.437954    14.672664 
  -82.992219    29.938933     14.43103     14.66654 
  -86.623281    29.962925    14.428613    14.659793 
  -44.825968    29.983452    14.425227    14.655458 
   23.376618    30.002186    14.416721    14.651461 
   19.714071    30.021855    14.406256    14.649687 
   -53.43687    30.042313    14.391098    14.648419 
  -71.932317    30.060633    14.372825    14.647249 
  -89.196757    30.076076    14.355533     14.64807 
  -49.463175    30.087951     14.33728    14.652979 
  -36.293135    30.097848    14.317561    14.658484 
   -71.17289    30.106293    14.297287    14.664998 
  -46.495622    30.111891    14.288005    14.666263 
   54.442949    30.115629    14.296666    14.655998 
   64.398108    30.121545    14.307597    14.643132 
   59.308914    30.130037    14.314961    14.633436 
    67.20807    30.140901    14.317021    14.628395 
   44.187857    30.154453    14.313496    14.624882 
  -128.37808    30.169773    14.307142    14.621515 
  -136.11027    30.179958    14.295326    14.620111 
  -92.516344    30.184698    14.278503    14.618771 
  -30.339868    30.185738      14.2579    14.617846 
  -76.607766    30.185564    14.235962    14.618347 
   1.1243729    30.182326    14.215884    14.616702 
   103.32585    30.179133    14.207679    14.613655 
   66.353393    30.180073     14.21105    14.608892 
   133.21028    30.183667    14.218153    14.602443 
   57.254202    30.192589    14.222539    14.598234 
   25.827451    30.203802    14.226035    14.593819 
  -39.365899    30.216047    14.226366    14.590672 
  -17.040833    30.226718    14.224997    14.586576 
  -50.220582    30.236708    14.221232    14.577896 
  -64.329008    30.244688    14.214254    14.565686 
  -7.9633004    30.250096    14.207073    14.553998 
   52.567864    30.255185    14.199971    14.550308 
   78.237219    30.262376    14.194243    14.552458 
    191.0672    30.272697     14.19034    14.560068 
   100.51099    30.290661     14.18754     14.57038 
   15.940331    30.312645    14.183136    14.580235 
  -11.085103    30.335267    14.179206    14.590238 
   3.3356368    30.357446    14.174162    14.600081 
  -19.192642    30.379758    14.164464    14.607629 
   -30.33046    30.401302    14.151446    14.615013 
  -90.418307    30.421633    14.131372    14.621327 
  -202.05897    30.438347    14.108907    14.626246 
  -296.31901    30.446979    14.094897    14.636936 
  -77.958611    30.443758     14.10269    14.657385 
   29.025017    30.437418    14.114481    14.678772 
  -53.802197     30.43224    14.124951    14.699151 
   28.922815     30.42491    14.136414    14.720056 
  -23.414777    30.418736    14.149141    14.738622 
   55.203327    30.411626    14.161823    14.758643 
   110.93103    30.406725    14.171066    14.779087 
   120.68375     30.40626    14.179305    14.800665 
    15.50676    30.410623    14.186661    14.823063 
  -29.007415    30.415606    14.195888    14.841681 
  -50.606262    30.419428    14.206139    14.853412 
  -74.653332    30.421227    14.214157    14.860523 
   -73.17063    30.420039    14.222927    14.866851 
    -114.381    30.415924     14.23595    14.875573 
   -24.45113    30.407235    14.258476    14.888304 
  -10.319226    30.397567    14.285522    14.905767 
   97.826691    30.387486    14.310087    14.921864 
   111.86124    30.381319    14.332336    14.939622 
   51.577769    30.379626    14.351519    14.954645 
   50.835702    30.379996    14.370355    14.970723 
  -98.186552    30.382399    14.388514     14.98469 
  -34.936512    30.380875    14.405587    14.993927 
  -62.497371    30.377954    14.425087     15.00214 
   50.722863    30.372532     14.44556    15.008992 
   28.969086     30.36914     14.46635    15.011983 
    13.03075    30.366906     14.48893      15.0116 
  -33.216763    30.365194    14.513265    15.010107 
  -200.53517    30.362153    14.540045    15.009221 
  -242.10837     30.35109    14.575081    15.015483 
   -124.2648    30.330343    14.608359    15.025005 
  -9.2953846    30.304626    14.630322    15.034473 
  -28.522892    30.278536     14.64461    15.042039 
  -27.118242    30.251306    14.656525    15.048254 
  -60.451937    30.222991    14.665236    15.052947 
  -116.44054    30.192258    14.668374    15.055866 
    5.958288    30.156868    14.668981     15.05784 
   127.52119    30.121715    14.669195    15.059484 
   781.14116    30.091664     14.67286    15.059961 
   791.70611    30.092858    14.683171    15.057318 
  -100.66451    30.125721    14.699678    15.049255 
  -129.93392    30.154557    14.719809    15.038667 
   4.8116907    30.178195    14.738788     15.02694 
  -67.129368    30.202026     14.75711    15.018392 
  -18.854231    30.223172    14.772346    15.011627 
   2.2890637    30.243564    14.782936    15.005667 
   36.261091    30.264047    14.792052    14.998268 
    86.80244     30.28598    14.795067    14.990062 
   29.493219    30.311386     14.79391    14.978474 
   26.816479    30.337972    14.788636    14.964477 
  -413.60322     30.36563    14.783113    14.950452 
  -524.35687    30.376744    14.778535    14.940619 
  -91.545457    30.366884    14.777977    14.938393 
   34.551143    30.353361     14.78141    14.942113 
   6.6922944    30.341221    14.787637    14.949448 
   127.81817    30.329349    14.794392    14.959125 
    86.17393    30.322589    14.803249    14.966629 
   28.030066    30.319277      14.8111    14.970204 
   93.616769    30.317085    14.816744    14.970166 
   17.179679    30.318638    14.819898    14.967739 
  -6.1861627    30.320879    14.820912    14.965741 
  -75.210598    30.322872    14.818189    14.963643 
  -119.69811    30.321856    14.814587    14.961865 
   28.649518    30.316053    14.811584    14.962037 
   45.676336    30.311396    14.812112    14.968176 
   195.22379    30.308565    14.813571    14.975825 
   168.83555    30.313544    14.815784    14.981154 
   30.569838    30.325276    14.818454    14.982728 
  -503.81241    30.338231    14.818627    14.979971 
  -137.53107    30.331033    14.816204     14.97597 
   166.59469    30.318334    14.813885    14.969177 
   175.80332    30.312299     14.81066    14.961314 
  -89.268238    30.313296    14.810055    14.951255 
  -42.780878    30.310722    14.811511    14.938393 
    72.60768    30.306437    14.811252    14.923604 
   41.432123    30.305056    14.810126    14.910358 
   48.614519    30.305333    14.809767    14.903232 
    47.48566    30.307554    14.811595     14.90142 
   11.480457    30.311675    14.816077    14.903783 
  -26.767353    30.316255    14.818719    14.904224 
  -90.837354    30.319764    14.817401    14.902104 
  -211.24135    30.319639    14.811538    14.898986 
  -179.73875    30.311065    14.803044    14.895668 
  -137.36478    30.295302    14.792684    14.890798 
  -159.82169    30.274044    14.781818    14.885305 
   301.50884    30.246393    14.775379    14.876974 
   93.982799    30.230802    14.773397    14.869877 
   18.282145    30.218971    14.773787    14.864165 
  -10.293792    30.207871    14.776526    14.862864 
   105.60152    30.196359     14.77526    14.865989 
   17.301238    30.189071    14.772655    14.870661 
  -17.975379    30.182475    14.770766    14.876947 
  -88.322747    30.175161    14.768314    14.880987 
  -48.491295    30.164313    14.766088    14.884407 
  -39.706512    30.151526     14.76455    14.887162 
  -287.18712     30.13715    14.760635    14.884947 
   -143.6112    30.111287    14.757599    14.876222 
   25.552679     30.07968     14.75241     14.86218 
   86.714926    30.049094     14.74242    14.848877 
   351.60089    30.021978    14.728047    14.836209 
   463.47604    30.008925    14.709807     14.82959 
   85.340868    30.014411    14.692713    14.828704 
   -112.6067    30.023311    14.678952    14.832497 
  -262.12363    30.027707    14.671855    14.833679 
   56.227531    30.021618    14.670838    14.835471 
   680.77105    30.017777    14.672414    14.834669 
  -254.65317    30.041168     14.66819    14.830597 
  -214.63447    30.054373    14.660353    14.825651 
  -29.364387    30.058992    14.647355     14.81952 
   9.8829589    30.062436    14.629886    14.812854 
    58.44663    30.066276    14.608854    14.807047 
   25.843563    30.072454    14.583577    14.802901 
   61.567899    30.079666    14.561531    14.799054 
   212.49933     30.08934    14.545921    14.798025 
   90.438627    30.107514     14.53571    14.797899 
  -35.882074    30.129306    14.525291    14.797357 
  -69.730923    30.149662    14.513099    14.794582 
  -157.22693    30.167229    14.496088    14.788954 
  -150.58002    30.178508    14.476503    14.783284 
   87.026009    30.183763     14.45558    14.775525 
   69.458636    30.192499    14.434089    14.765703 
  -23.134234    30.204013    14.417128    14.753689 
   -133.6201    30.214602    14.408109     14.73963 
    -82.4522    30.219846    14.409899    14.733207 
   117.80396    30.221792    14.418628    14.731956 
   9.2976491     30.22845    14.428065    14.733468 
   57.473263     30.23548    14.435857    14.733205 
  -142.66883     30.24481    14.439389    14.733545 
  -105.22722    30.248432     14.43659    14.730733 
  -30.217417    30.247845    14.428917    14.721195 
  -2.1249942     30.24605    14.414992    14.704967 
   16.104993    30.244169    14.401411    14.683684 
  -6.5078511    30.242933    14.391757    14.661069 
  -125.00195    30.241436    14.387472    14.641865 
  -16.605937     30.23494    14.392463    14.631343 
   138.02999    30.227779    14.398428    14.624037 
   62.600276    30.226139    14.400437     14.61606 
  -39.523325    30.227003    14.400277    14.610322 
  -57.361043    30.226287    14.398604    14.607693 
  -62.159013    30.223276    14.395174    14.605305 
   31.308861    30.217778    14.389725    14.601122 
  -12.717167    30.213533     14.38204    14.594884 
   16.475455    30.208779    14.371562    14.590096 
  -8.0954633    30.204685    14.368002    14.583962 
  -36.009019    30.200266    14.375165    14.578211 
   81.860271    30.194407    14.391844    14.573771 
     86.3245    30.191823    14.408744    14.568741 
  -26.261623    30.192691    14.420641    14.564644 
  -49.804989    30.192509    14.426155    14.561108 
  -114.69108    30.190335    14.426081    14.557717 
 -0.10473728    30.183573    14.420252    14.554656 
   45.225818    30.176807    14.410633    14.550198 
   47.783486     30.17185    14.399682    14.547426 
   89.528776    30.168805    14.392066    14.550777 
  -1.9397872     30.16934    14.392008    14.552601 
   -161.6394    30.169798    14.398849    14.553281 
  -146.96897     30.16379    14.404402    14.556372 
  -53.312669    30.151904    14.406778    14.560622 
   9.4526965    30.137885    14.405741    14.565373 
  -60.411777    30.124244    14.402321    14.567191 
  -21.865578    30.108187    14.397595    14.568449 
  -68.595453    30.091255    14.392785    14.566988 
   61.521098    30.071579    14.392274     14.56494 
   266.36924    30.054364    14.397301    14.562896 
   775.45707    30.047804    14.407095    14.562215 
  -83.230678    30.072262    14.420359    14.563994 
  -231.45298    30.093391    14.431423    14.563796 
  -65.441085    30.105262    14.442145    14.561859 
  -97.226311    30.114515    14.450746    14.559907 
   -129.5848    30.119879    14.458548    14.556766 
  -9.4972715     30.12006       14.467    14.556292 
   79.630626    30.119861    14.472969    14.562273 
   69.579717    30.122847    14.476659    14.572438 
   140.95657    30.128616    14.480176    14.581615 
   63.777115    30.140024    14.482484    14.586667 
  -2.3988435    30.153982    14.483169    14.587007 
  -97.503201    30.167845    14.482416    14.583078 
  -313.43248    30.177808      14.4777    14.576883 
  -148.18144    30.175233    14.471781    14.569035 
  -35.171564    30.166731    14.464361     14.56034 
    97.84283    30.156822    14.461412    14.556255 
   132.24603    30.150827    14.460309    14.554337 
   126.60783    30.150121     14.46048    14.555105 
   105.60803     30.15448    14.458186    14.557408 
   49.002897    30.163064    14.456719    14.561053 
   -24.74437    30.173607      14.4572    14.562602 
  -193.05693    30.183161     14.45824    14.562228 
  -242.84014    30.184992    14.457438    14.560064 
  -405.61516     30.17711    14.454275    14.554525 
  -182.14314    30.153003    14.449644    14.548018 
   66.072864     30.12161    14.446914    14.545159 
   718.78125    30.092861    14.445989    14.547252 
   25.161168    30.092862    14.442768    14.547868 
   29.522964     30.09387    14.440505    14.548107 
   47.378216    30.096059     14.44202    14.547288 
    52.17658    30.100143    14.443455    14.543953 
   73.187598    30.106314    14.443959    14.543106 
   80.862265    30.115413     14.44525    14.547381 
  -73.195337    30.127746    14.451093    14.562788 
  -229.01681    30.137151    14.458332    14.582022 
  -266.84485    30.137396    14.462209    14.598637 
   47.724592    30.126967    14.460142    14.611144 
   122.50087    30.118447     14.45581    14.620944 
   162.89215    30.114827    14.449334    14.628612 
   90.372318    30.117722    14.440828     14.63537 
  -26.259792    30.124233    14.431483    14.642154 
   3.5050327    30.129693    14.421767    14.650031 
  -78.959666    30.135293     14.41191    14.662323 
  -89.090618    30.137735    14.403501    14.678798 
  -52.826767    30.136613    14.398662    14.699493 
  -60.341372    30.133378    14.400457    14.718584 
   -111.7899     30.12773    14.405045    14.735017 
  -168.21404     30.11761     14.40909    14.747574 
  -75.821128    30.100761    14.410837    14.758446 
  -11.350173    30.080879    14.409644    14.766363 
  -92.836274    30.060544    14.405398    14.771525 
   31.477038    30.036495    14.400596     14.77785 
   110.35556    30.013705     14.39584    14.786157 
   208.43108     29.99533    14.394122    14.799371 
   743.53076    29.985291    14.392661    14.816076 
   64.690404    30.004994    14.386153    14.831742 
   -102.2933    30.027284    14.376959    14.844713 
  -177.62384    30.045483    14.364354    14.853469 
  -137.33212    30.056577    14.351419     14.85726 
  -69.620745    30.062177    14.335125    14.859082 
  -13.142806    30.064993     14.31666    14.858555 
   24.381506    30.067283    14.297015    14.857957 
   35.292229    30.070548    14.279021    14.858056 
 -0.19551877    30.075225    14.260888    14.862403 
   74.254998    30.079894    14.246649    14.869539 
  -20.789745    30.087533    14.234419    14.877804 
  -70.058358    30.094341    14.221935    14.883129 
   -29.34546    30.098346    14.209277    14.885152 
   74.683197    30.101178    14.193144     14.88621 
   16.914088    30.106997     14.17685     14.88531 
   92.338221    30.113492    14.161052    14.884182 
  -21.340587    30.123681     14.14528    14.884061 
  -26.451572    30.133017    14.131631    14.884768 
  -77.221685    30.141294    14.120991    14.886389 
  -18.500098    30.146482    14.111914    14.888619 
  -44.440022    30.150931    14.102345    14.891738 
  -43.755674    30.153601    14.090019    14.892095 
  -175.51861    30.154522    14.072722    14.888271 
  -35.677431    30.148422    14.056683    14.878367 
   48.670943    30.140894    14.043087    14.863031 
   44.377185    30.135314    14.029281    14.850984 
   17.091689    30.131509    14.015556    14.842397 
   27.761169    30.128387    14.003883    14.839027 
  -7.2940367    30.126376    13.995059      14.8408 
  -116.61488    30.124073    13.989888    14.845503 
  -77.507618    30.117105    13.985529    14.850619 
  -18.988887    30.107037    13.986751      14.8537 
   2.6935261     30.09621    13.991264    14.853288 
  -156.06319     30.08549    13.996211    14.849419 
   269.74157    30.068528    14.000527    14.845332 
   345.42008    30.062355    14.004451    14.841316 
  -54.513809    30.069999    14.007811    14.839873 
  -87.340387    30.075463    14.011007    14.843134 
  -23.846135    30.077433    14.013314    14.848491 
   55.711148    30.078449    14.015667    14.853354 
    137.3918    30.081694    14.018621    14.857885 
    148.6881    30.090434    14.018682    14.860956 
   52.160969    30.105122    14.017959    14.862051 
  -275.97165    30.121896    14.014818    14.860116 
  -347.15911    30.127632    14.010702     14.85352 
  -198.54139    30.119481    14.008022    14.844169 
   32.606447    30.103388    14.009401    14.834458 
   7.9032092      30.0886    14.014016    14.825902 
   122.78706    30.074128    14.019471     14.81661 
   48.482798    30.064567    14.025809    14.805345 
   95.495515    30.056946    14.031915    14.794757 
    15.65377    30.053144      14.0395    14.786026 
   125.73634    30.049969    14.047053    14.777025 
   404.04895    30.051823     14.05686    14.769255 
  -199.72319    30.069839    14.068329    14.759843 
  -172.32455    30.079866    14.078935    14.750742 
  -12.072504       30.083    14.093724    14.744606 
   53.156935    30.085651    14.108063    14.738771 
   79.734806    30.090428    14.119176    14.732823 
   52.278744    30.098395    14.127253    14.727157 
   79.504213    30.108453    14.130969    14.719785 
  -137.03919    30.121691    14.133907     14.71408 
  -182.28625    30.129448    14.136721    14.707231 
  -198.93005    30.129913     14.13983    14.701079 
  -129.83732    30.122421    14.145075     14.69539 
   15.760936    30.109735    14.151066    14.690894 
   61.594044     30.09768    14.156548    14.685942 
   210.75617    30.088089    14.168824    14.685455 
   345.35319    30.086928    14.184999    14.687843 
   71.771979    30.099581    14.201652    14.689102 
  -56.191566    30.115104    14.217614    14.689287 
  -185.60986    30.128381    14.232955    14.688482 
  -215.16523    30.134233    14.247352    14.686712 
  -207.60256    30.131478    14.260546    14.686073 
  -64.870592    30.120419    14.273763    14.687762 
   8.4161024    30.106765    14.283944      14.6871 
  -52.167649    30.093448    14.291399    14.686433 
   6.0379041    30.078044    14.297331     14.68528 
  -28.420274    30.062882    14.301275    14.685356 
  -14.071722    30.046583    14.302376    14.684699 
   112.00219    30.029721    14.302951    14.683957 
   388.96838    30.017339    14.304055    14.683758 
    88.22719    30.020516     14.30685    14.682958 
  -84.075745    30.027222    14.309153    14.682939 
  -80.291032    30.030565     14.31418    14.679313 
   4.0038439    30.030696    14.321614    14.674237 
   54.976912    30.030988     14.33026    14.669541 
   68.013063    30.033478    14.337621     14.66475 
  -24.095861    30.038689    14.345211    14.662197 
   10.216252    30.042937     14.35329    14.659462 
  -22.913802    30.047592    14.361413    14.654754 
  -144.87077    30.051332    14.366114    14.647308 
   -102.9985    30.049276    14.368909    14.638275 
   45.190441    30.043101    14.371184    14.624885 
   233.70116    30.038733    14.374155     14.61266 
   241.17464    30.043713    14.377236    14.599211 
   13.781465     30.05834    14.379268    14.585635 
  -98.647646    30.073519    14.380217    14.576589 
  -113.85988    30.084751    14.380792    14.570444 
  -77.952589     30.09143    14.377702    14.565372 
  -1.3663764     30.09499    14.372341    14.561381 
  -85.413543    30.098495    14.366625    14.558777 
  -36.561597    30.098584    14.361489    14.557101 
  -105.29629     30.09721     14.36069    14.555825 
   -71.54191    30.091625    14.361182    14.557777 
  -127.43168    30.083178    14.362644    14.560444 
   38.964112    30.069633    14.362774     14.56288 
    237.8358    30.057647     14.36054    14.564713 
   174.48642    30.055175    14.355375    14.565754 
   112.75053    30.059682    14.349345    14.568463 
   5.0035935    30.068699     14.34156    14.571538 
  -64.085767    30.077916    14.333161    14.576083 
  -28.432656     30.08457    14.324711    14.582699 
  -60.084382    30.090087     14.31696    14.589137 
   41.152724      30.0932    14.310045    14.595106 
  -70.964283    30.097959    14.303201     14.59844 
  -186.15043     30.09988    14.296959    14.602547 
  -88.377314    30.094354    14.290559     14.60473 
  -10.432945    30.085294    14.285322    14.606555 
     164.873    30.075816    14.277362      14.6067 
   357.83412    30.072933    14.267485     14.60618 
   40.667016    30.084364    14.256313    14.606703 
  -88.970329    30.097421    14.248702     14.60691 
  -50.208455    30.106919    14.245637    14.607478 
  -82.805364    30.114409    14.246558    14.610396 
  -40.425384    30.118587    14.250691    14.615592 
  -107.82451    30.121148    14.254742    14.620865 
  -41.082287    30.119396    14.258808    14.624659 
  -7.9887331       30.116    14.257418    14.627567 
   -21.21708    30.112285    14.253857    14.625631 
  -80.546172    30.107721    14.247259    14.620781 
   13.614322    30.099936    14.240271    14.615702 
   283.52194    30.092695    14.236991    14.613962 
   52.550235    30.096795    14.239801    14.615525 
   26.454768    30.102997    14.246484    14.620384 
  -4.3685288    30.110257    14.254004    14.628821 
   22.507897    30.117342    14.257961    14.639223 
   11.817874    30.125328    14.260346    14.649315 
  -21.706202    30.133786     14.26087    14.662808 
   -150.7736    30.141376    14.258445    14.677134 
  -180.30774    30.142936    14.252518    14.685851 
  -153.80597    30.137282    14.244373    14.689458 
   67.632759    30.125477    14.237628    14.687413 
   215.82018    30.116377    14.237464    14.689722 
   104.43634     30.11591    14.240846    14.693746 
   37.044437     30.11962    14.243816    14.698606 
  -36.698621    30.124812    14.246195     14.70537 
   36.802189    30.128536    14.248354    14.712102 
  -4.2948775    30.133732    14.247889    14.722823 
  -77.567289    30.138757    14.246933    14.734763 
  -162.60477    30.140678    14.245482    14.744802 
  -137.96993    30.136096    14.242967    14.751865 
  -8.8308671    30.125994    14.243293    14.750263 
   106.44276     30.11554    14.249181    14.749752 
   220.73876    30.109343    14.252136    14.750104 
   143.32158    30.111976    14.252244    14.751028 
   130.43628    30.120341    14.247897    14.753314 
   3.6055428    30.133924    14.241272    14.755527 
   16.082681    30.147651    14.233187    14.760078 
  -160.22176    30.162022    14.222029    14.767431 
  -92.094022    30.169984    14.209639    14.775992 
  -74.395632    30.174262    14.197106    14.782725 
  -92.655129    30.175564    14.185692    14.785348 
  -50.621768    30.173159    14.178818    14.787053 
   44.183647     30.16873    14.178058    14.787499 
   178.41512    30.166069    14.179643    14.787821 
   119.49499    30.170544    14.179135    14.785647 
   -6.044562    30.179799    14.177057    14.782893 
  -106.56361    30.188812    14.173085    14.782871 
  -234.25626    30.193562    14.169651    14.786812 
  -165.44169    30.188942      14.1651    14.791108 
  -62.524004    30.177705    14.161727    14.793093 
   43.239099    30.163966     14.15962    14.791738 
   24.990992    30.151957    14.160141    14.790241 
  -24.205768    30.140948    14.160399    14.789031 
   104.79646    30.128971    14.163517    14.788777 
   148.90397    30.121185    14.163894    14.788719 
   157.63907    30.119355    14.162234    14.787179 
  -118.63797    30.123832    14.157869    14.783649 
  -157.82975    30.123562    14.151247    14.781184 
   -105.9075     30.11698    14.145789    14.776739 
  -17.113906    30.106161    14.142576    14.772156 
   16.020922    30.094657    14.140234    14.767043 
  -73.468096    30.083795    14.139222    14.764235 
   28.286688    30.069993    14.140504    14.764008 
   96.869685    30.057323    14.140873     14.76806 
   95.463937    30.048528    14.141747    14.777355 
    67.72604    30.043552    14.143504    14.788686 
   5.9570729    30.041284    14.145017    14.795691 
  -60.356341    30.039255    14.145409    14.797899 
  -21.325378    30.034811    14.145067    14.794024 
  -56.882211    30.029515    14.145301    14.786892 
  -43.699353    30.021943    14.146252    14.776572 
    13.38961    30.012623    14.146804    14.765745 
   4.3918774    30.003839    14.150708     14.75992 
   40.609174    29.995231    14.158226    14.759031 
   73.468016    29.988247    14.167082    14.762149 
   59.292565    29.984201    14.174792     14.76525 
  -7.7346515    29.982528    14.180589    14.769175 
   97.898454    29.980545    14.181809     14.77273 
   102.69175    29.982477      14.1812    14.777617 
   99.772426    29.988518    14.179066    14.778646 
    46.70967    29.998549    14.176901     14.77398 
  -10.751184    30.010449    14.178785    14.768942 
  -105.08696    30.021919    14.189294    14.764715 
  -15.261374    30.029185    14.205132      14.7633 
   18.965056    30.035841    14.220915    14.766448 
   47.520715    30.043255    14.233151    14.770663 
    116.5305    30.052571    14.242372    14.777863 
   85.115104    30.066547    14.249789    14.787571 
  -49.301214    30.083928    14.252543    14.798735 
  -113.69287    30.099337    14.254466    14.809708 
   -35.38048    30.110199    14.256235    14.816523 
  -52.675921    30.119645    14.259578    14.820807 
  -101.30171    30.126984     14.26299    14.823874 
  -113.57553    30.130271    14.261225    14.825086 
  -108.08478    30.129015    14.255608     14.82691 
  -72.335315    30.123435    14.245617    14.829062 
   31.449416    30.114963    14.238607    14.834185 
    135.0623    30.107748    14.235274     14.84154 
   21.329159    30.105935    14.237025    14.853005 
   3.8398146    30.104976    14.238678    14.865899 
   55.736204    30.104171    14.242593    14.876694 
  -5.6173289    30.105594    14.249866    14.880195 
  -59.251724    30.106794    14.257381    14.882827 
  -68.583748    30.105623    14.261972    14.886911 
   -137.3263    30.101708    14.261382    14.890255 
  -51.125585    30.092301    14.255721    14.893597 
   96.914207    30.080849    14.248828    14.899259 
   209.10381    30.073273    14.244733    14.908592 
   10.573523    30.074061    14.241947    14.922935 
   8.4892275    30.075273    14.240611    14.938396 
  -51.322169    30.076823    14.238289    14.951731 
  -81.599123    30.076321    14.237222    14.959792 
   12.276637    30.072556    14.239093    14.964304 
   64.368764    30.069281    14.241227     14.96821 
  -13.508916     30.06858    14.243153    14.973216 
  -10.911599     30.06734    14.244866    14.978724 
   103.69672    30.065663     14.24694    14.984033 
   2.2747927    30.068134    14.248545    14.991904 
   12.782065    30.070696    14.248071    15.001584 
   12.719925    30.073769    14.244545    15.011122 
   -4.859981    30.077351    14.240016     15.01586 
   9.0401971    30.080739    14.236678    15.013684 
    40.49104    30.084488    14.236823    15.006155 
   19.491918    30.089857    14.238969    14.997838 
  -2.6539608    30.096005    14.244323    14.992281 
   19.459232    30.102047    14.255495    14.989867 
   43.600209    30.108868    14.268975    14.988545 
   81.784495    30.117433    14.278694    14.987501 
  -20.350603    30.129269    14.284557    14.988678 
  -45.534261    30.140291    14.286893    14.989334 
  -50.189908    30.149492    14.287155    14.986982 
  -35.743284    30.156685    14.285987      14.9822 
  -44.683098    30.162448    14.285822    14.972814 
  -63.684043    30.166424    14.288541    14.959647 
   2.6333108    30.167853    14.293722    14.949995 
   116.18514    30.169387    14.300478    14.945538 
   68.949583    30.175568    14.307103    14.947547 
  -46.074596    30.184508    14.310573    14.950769 
  -112.32928    30.191604    14.307268      14.9528 
   18.010169    30.194207    14.300304    14.952939 
  -75.247465    30.197531    14.291029    14.949331 
  -60.271237    30.197845    14.279603    14.944315 
  -154.17871    30.195748    14.269207    14.938257 
  -115.00004    30.187484    14.258506    14.929915 
   6.3273694    30.174619    14.251627    14.922987 
   138.70093    30.162008     14.24809    14.919356 
   139.79435    30.154945    14.245852    14.917472 
   32.319478    30.153474     14.24496    14.918485 
  -76.183578    30.153295    14.240886    14.919048 
  -97.400041    30.150069    14.235362    14.917515 
  -53.662689    30.142947    14.227835    14.916314 
  -55.807712    30.133679    14.220193    14.916386 
  -26.042409    30.122178    14.215399    14.915167 
   26.826489    30.109636    14.212098     14.91184 
   113.23383    30.098167    14.214995    14.909402 
   161.30561    30.091227    14.222555    14.910101 
   104.31129    30.090739    14.229738    14.917156 
  -70.277374    30.094424    14.235614    14.925516 
  -44.171345    30.095297    14.239107    14.932614 
  -80.582079    30.094404    14.242785    14.936363 
  -17.877747    30.090287    14.246885    14.934926 
  -120.57695    30.085456    14.249253    14.929165 
  -53.743175    30.075801    14.255449     14.92207 
  -34.464267    30.063996    14.262789    14.914531 
   49.036188    30.050813    14.273063    14.907897 
   145.99899    30.039592    14.283977    14.903471 
    218.9122     30.03421    14.294944    14.900928 
   64.148938    30.037585    14.304324    14.901428 
  -109.38779    30.043526    14.311878    14.906735 
  -127.97107    30.045091     14.31522    14.914118 
  -83.481747    30.041538    14.312962    14.918645 
  -91.348263    30.034645     14.30709    14.918623 
   24.784226    30.024098    14.298677    14.917901 
   13.562955    30.014543    14.288766    14.918485 
   59.163998     30.00553    14.279668    14.922621 
    99.45987    29.998884    14.273668     14.93063 
   149.02736    29.996216    14.270821    14.945355 
   119.29773    29.999509    14.267483    14.962936 
  -65.540077    30.007574     14.26474    14.984859 
  -86.184288    30.013018    14.258581    15.005427 
  -135.36817    30.015014    14.251826    15.022919 
  -44.490338    30.011595     14.24636     15.03532 
   20.129312    30.006397    14.244725    15.041646 
   27.418534    30.002004    14.243584    15.046129 
   62.131381    29.998708    14.243178    15.048896 
   103.67239    29.997897    14.244751    15.051804 
   178.95795    30.001232    14.247825    15.054269 
   50.556091    30.011727    14.254557    15.060859 
  -58.224464    30.024243    14.262091    15.067821 
  -84.063245     30.03443    14.267855    15.073736 
  -74.881799    30.041255    14.270162    15.076257 
  -42.700954    30.045085    14.273509    15.074747 
  -88.758262    30.047207    14.276104    15.068366 
  -26.925332    30.045778    14.278589    15.059367 
    26.58411    30.043272     14.27881    15.045294 
   88.091989     30.04183     14.27775    15.032018 
   43.258428    30.043911    14.279964    15.023892 
   84.836086    30.047723    14.285182    15.021366 
  -55.255737    30.054928    14.292831     15.01989 
  -80.565897    30.059923    14.298624    15.022524 
  -63.172072    30.061695    14.301569    15.026096 
  -63.358885     30.06094    14.305567    15.025606 
  -46.942106    30.057651    14.306079    15.024538 
   -45.44874    30.052484    14.305654    15.018706 
   24.699483      30.0455    14.304526    15.009961 
   8.0704762    30.039503    14.306343    15.004381 
  -95.144943    30.033829    14.311002    15.003413 
   4.3393928     30.02435    14.316872    15.008838 
   89.026525    30.015044    14.322102    15.014706 
   70.974744    30.009299    14.323949    15.020707 
    46.42385    30.006393    14.320964    15.027571 
    53.79086    30.005343    14.315133       15.031 
  -41.635649    30.006446    14.308148    15.030376 
   21.929628    30.005883    14.302525    15.027487 
  -30.608432    30.006197    14.299673    15.023106 
     8.76792    30.005287    14.300062    15.018305 
    3.673371    30.004728    14.304379    15.013065 
  -3.8268475    30.004316    14.307821    15.009639 
   93.741072     30.00375    14.307738     15.00696 
   86.079336    30.006935     14.30585    15.002747 
   38.680768    30.013562    14.302705    14.993792 
  -20.441846    30.021737     14.29777     14.98344 
  -87.035063    30.029093    14.287979    14.974356 
  -70.393642    30.032969     14.27771     14.96706 
  -84.309035    30.034029    14.268924    14.960685 
  -66.607732    30.031716    14.265705    14.957758 
  -23.492035    30.026739    14.266334    14.956821 
   43.342958    30.020823    14.267423    14.956061 
    96.92698     30.01664    14.268242    14.953443 
   82.867951    30.016334    14.268416    14.949942 
   29.343856    30.019343    14.266925      14.9473 
  -44.877893    30.023526    14.263673    14.947724 
  -69.822557    30.025913     14.26125    14.950672 
  -151.07802    30.025508    14.259241    14.955112 
  -41.374338     30.01906    14.261016    14.960918 
  -57.317439    30.010956    14.264954    14.967277 
    -20.4493     30.00056    14.267009    14.975606 
   69.466833    29.989346    14.264807    14.979538 
   146.26122    29.980911    14.256977    14.982742 
   137.36108    29.978326    14.246003    14.982268 
   98.611651    29.981235    14.233391    14.980006 
   23.396884    29.988089    14.218627    14.979717 
  -34.671186    29.995879    14.204531    14.979908 
  -45.768681    30.002282    14.188838    14.980257 
    16.41147    30.006854    14.176173    14.979655 
  -44.527858    30.012083    14.166668    14.976552 
    33.65596     30.01553      14.1619    14.973028 
   31.466329    30.020324    14.159199    14.967875 
   67.136015    30.026377    14.158986    14.960685 
  -32.335161    30.035115    14.159365    14.953079 
  -44.245974    30.042559     14.15984    14.947449 
  -90.931668    30.048234     14.16021    14.941027 
   -133.9646    30.050271    14.160044    14.935753 
   -89.22597     30.04695    14.157601    14.933068 
  -67.488768     30.04006    14.156505    14.931585 
   34.319579     30.03047    14.154819    14.930878 
    78.25862    30.022253    14.156687    14.924235 
   169.51157    30.017166    14.161355    14.915332 
   77.298213     30.01886    14.170821    14.907771 
  -48.817796    30.023646     14.18517    14.902941 
  -79.129786    30.026479    14.201447    14.900414 
   -81.86519    30.026147    14.217344    14.898045 
   -91.97047     30.02254    14.229855    14.899563 
    30.92165    30.015254    14.239607    14.903181 
   93.612635    30.009206    14.244786    14.909119 
   81.779076    30.006902    14.247408    14.915288 
   158.65587    30.007869    14.249946    14.919846 
   115.48662    30.015182    14.254478    14.926969 
  -88.914635    30.027114    14.263095    14.933985 
  -150.35254     30.03549    14.271795    14.936125 
  -135.50612    30.037852    14.279572    14.935778 
  -90.634385    30.034794    14.286969    14.934786 
  -95.654411     30.02811    14.292559    14.934481 
   29.017408    30.017601    14.292484    14.935592 
   112.01791    30.008251    14.288828    14.937484 
   264.73335    30.003383    14.281868    14.939889 
   221.97425    30.009104     14.27705      14.9426 
   30.430229    30.023704    14.278656    14.946332 
  -135.19165    30.039521    14.285966    14.948419 
  -158.80615     30.04993    14.298111    14.946098 
  -241.31407    30.053988    14.310734    14.940514 
  -138.04135    30.048392    14.320115    14.931683 
  -47.070675    30.037275    14.326252    14.922056 
   120.89858    30.024275    14.329732    14.909875 
    213.1049    30.016111     14.32701    14.899143 
   167.67183    30.016472    14.323052    14.889877 
   170.83705    30.023539    14.318337    14.885923 
  -22.631497    30.037439    14.319333    14.887319 
  -107.85681    30.050435    14.329536    14.887704 
  -202.64947    30.059116     14.34462    14.885768 
  -179.44762    30.059691     14.35921    14.883997 
     -139.44    30.053088    14.373505    14.882988 
  -17.717173    30.040908    14.383683    14.882069 
   173.83932    30.028019    14.387383    14.877037 
   161.35177    30.022083    14.388959    14.870614 
   196.18461    30.022602    14.388304    14.867639 
   108.53849    30.030968    14.385033    14.869081 
  -118.60492    30.043675    14.382139    14.874684 
  -155.02151    30.051639    14.384698    14.884222 
  -158.05123    30.053401    14.391846    14.893991 
  -114.90922    30.048841    14.399368    14.899852 
  -37.870838    30.039685    14.407204    14.903203 
   11.574408    30.029015    14.414935    14.905931 
   26.361457    30.018807    14.422302    14.908469 
   135.00659    30.009653    14.429302    14.909815 
   224.83021      30.0059    14.435847    14.911358 
   103.03794     30.01114    14.442459    14.916425 
  -135.03259    30.020502    14.450027    14.922559 
   -153.8071    30.024462    14.455451    14.930159 
  -56.441825     30.02227    14.459549    14.934358 
  -4.1916011    30.017821    14.462169    14.935384 
   71.393612    30.013203     14.46159    14.935364 
   105.44447    30.011442    14.458406    14.935213 
    46.70955    30.013898    14.451442     14.93506 
  -14.989899    30.018223    14.441757    14.935227 
   -87.74883    30.021948    14.435498    14.934344 
   19.357297    30.022163    14.429919    14.933328 
   25.099114    30.023152    14.425685    14.932254 
  -58.140625    30.025145    14.422575    14.927037 
   11.448799    30.024813      14.4203    14.917926 
   38.690397    30.024938    14.418586    14.907836 
   114.50602    30.026612    14.411998    14.899581 
   52.518895    30.032865    14.403496    14.894902 
  -36.213858    30.041219    14.392089    14.892054 
  -37.713226    30.048125    14.380329    14.892407 
  -80.752079    30.053522    14.367833     14.89515 
  -153.21399    30.055689    14.356151    14.894597 
  -137.51007    30.051728    14.347488     14.89133 
   72.008008    30.042266    14.344162    14.886376 
   235.15154    30.035684    14.345899    14.876871 
   157.43304    30.038509    14.349217    14.868959 
   16.402539    30.047631    14.355194    14.864745 
  -78.077528    30.057409    14.358056     14.86132 
  -75.528021    30.064063    14.358492    14.860687 
  -59.241076    30.067697    14.356513    14.860555 
  -51.936867    30.068961    14.354933    14.862423 
  -190.97771    30.068148    14.354537    14.865784 
  -159.76211    30.059695    14.351744    14.865638 
  -112.39946    30.044852    14.346821    14.862929 
   42.727193    30.025513    14.340124    14.858934 
   398.66381    30.007883    14.337238    14.852791 
   245.78298      30.0062    14.337049    14.847145 
   58.349098    30.014348    14.338173    14.844883 
   10.630057     30.02483    14.340704    14.847496 
   26.332302    30.035737    14.342786    14.852738 
  -40.458034    30.047697    14.345338    14.860981 
  -137.11209    30.058039    14.350523    14.869456 
  -105.58242    30.062897    14.354177    14.876377 
  -103.08433    30.063531    14.353498    14.883685 
  -61.897444    30.060042    14.353619    14.890762 
   152.44744    30.054077    14.354682     14.89653 
   233.27912     30.05421    14.355184    14.901091 
   211.78386    30.063674    14.356466    14.906089 
  -13.873281     30.08161    14.361419    14.915658 
  -70.512215     30.09899    14.365349    14.923932 
   -58.09462    30.113551     14.36996    14.930314 
   -177.5373    30.125787    14.372168    14.934712 
  -138.99317    30.130922    14.372962     14.93823 
   -161.7629    30.130497    14.373206     14.94036 
  -86.712978    30.123601    14.374048    14.940478 
   49.969738    30.113237    14.377886    14.944416 
   128.50361    30.104872    14.384805    14.948613 
   108.77296    30.101647    14.395567    14.952444 
   112.68455    30.102773    14.407164    14.952969 
   4.9240297    30.108406     14.41609     14.94954 
  -94.247656    30.114236    14.421509    14.942065 
  -109.96928    30.116296    14.424083    14.934152 
  -129.59644    30.113958     14.42188    14.926036 
  -101.22715    30.106436    14.417707    14.921101 
  -73.647053    30.094864    14.416258    14.920945 
   16.404871    30.080347     14.41792    14.926546 
   139.54112    30.066486    14.418862    14.933648 
   214.23375    30.058206        14.42    14.940528 
   165.16897    30.058496    14.419377    14.945688 
  -60.409346    30.065393    14.419193    14.946299 
  -86.849068    30.069873    14.418299    14.945332 
  -100.26216    30.070879     14.41581    14.942029 
  -61.173278    30.067875    14.413685    14.939515 
  -73.917069    30.062424    14.413756     14.94124 
   27.242033    30.054016    14.413586     14.94702 
  -13.753946    30.046698    14.415074    14.953373 
   142.08403     30.03883    14.416538    14.961555 
   151.38166    30.036645    14.421267    14.969757 
    12.39647    30.040515    14.429771     14.97507 
  -23.972817    30.044882    14.435965    14.978457 
  -15.788888    30.048289    14.440514    14.981547 
   20.856234    30.051065    14.441886    14.984673 
    22.60849    30.054675    14.443085    14.991463 
   28.793568    30.059189    14.448978       15.002 
  -15.612373    30.064855    14.459425    15.012723 
  -32.901154    30.069897    14.470571    15.022235 
   71.268883    30.073622    14.484339    15.026678 
   145.75136    30.080199    14.499578    15.024104 
   48.306881    30.092605    14.510961    15.018092 
  -155.86551    30.106944    14.519114    15.009375 
   -82.50028    30.115048    14.524542    14.997935 
  -85.719553    30.119852    14.529719    14.990528 
  -46.860955    30.121227    14.534521    14.988573 
  -39.134812    30.120728    14.539791     14.99129 
   -51.37534    30.118663    14.545146    14.997359 
  -38.393468    30.114543    14.551534    15.002858 
  -8.0726583    30.108888    14.558658    15.001754 
  -4.1310897     30.10291    14.565869    14.995428 
   42.010653    30.096766     14.57144    14.987769 
   64.078272    30.092303    14.576028    14.978876 
    34.30115    30.090403    14.577026    14.971118 
   45.792216    30.089875    14.573999    14.966578 
   -64.93736    30.091179    14.572314    14.965598 
  -11.213348    30.089885    14.568108    14.967513 
  -4.7889875    30.088143    14.562336     14.96757 
    20.42127    30.086209    14.557234    14.965905 
  -33.394732    30.085092    14.554719    14.960828 
  -49.296806    30.082639    14.553148     14.95464 
  -3.1349861    30.078215    14.553383    14.948277 
   149.95121    30.073665    14.557353    14.943071 
   45.404137    30.075113     14.55978    14.940741 
   65.972673    30.078377    14.561162    14.938549 
  -46.108613     30.08428    14.560934    14.937098 
    3.073391    30.088339    14.558565    14.932803 
  -6.4503295     30.09252    14.553821    14.927205 
  -1.5709575    30.096444    14.549233     14.91865 
  -72.716266    30.100305    14.547365    14.906816 
   31.473088    30.101257    14.548081    14.891925 
   91.696155    30.103468    14.551996     14.87431 
   52.391187    30.109347    14.557289    14.858426 
   14.063387    30.117322    14.561167    14.844799 
  -54.104838    30.125859    14.563879    14.831018 
  -40.486303    30.132232     14.56363     14.81833 
   5.4588957    30.136985    14.560192    14.807488 
   46.085106    30.141957    14.557983    14.798331 
  -55.613218    30.148772    14.556998    14.789578 
  -82.114951    30.153363    14.560589    14.781398 
  -168.05993    30.154669    14.568674    14.775079 
  -43.235143    30.149253    14.576742    14.770551 
  -22.246832    30.142107    14.585533    14.768591 
   42.483011    30.134072    14.593089    14.766731 
   32.478016    30.127736    14.599026    14.763983 
   68.725415    30.122698     14.60313    14.759514 
   54.671264     30.12041     14.60382    14.757245 
   33.134729    30.120309     14.60431    14.754789 
  -42.355602    30.121533    14.605474    14.748136 
  -40.439566    30.121063    14.608284    14.740886 
  -63.233765    30.118976    14.609363    14.731202 
   24.033031    30.114359    14.610414    14.727264 
   85.041111    30.110703    14.611091    14.726312 
   44.472294    30.110449    14.612028    14.727132 
  -30.577982    30.111974    14.611558     14.73111 
   16.107283    30.112275    14.610675    14.736782 
   -38.48959    30.113221    14.609539     14.74222 
    4.047665    30.112628    14.607773    14.743364 
   50.407476    30.112196    14.609892    14.739139 
  -25.417245    30.113781    14.615322    14.735333 
  -57.252736    30.114349     14.62369    14.733076 
  -100.29144    30.112627    14.633902    14.731407 
  -146.24624    30.106893    14.644507    14.733163 
  -39.980043    30.095309    14.655843    14.733965 
    64.39654    30.082126    14.666759    14.733563 
   99.007175    30.071519    14.674632    14.733011 
   73.345007    30.064873    14.681181     14.72977 
   82.888866     30.06116    14.684834    14.723998 
   123.77655    30.060762    14.688617    14.713988 
   84.945582    30.065316    14.692519     14.70672 
    64.99821    30.073267    14.695855    14.704503 
  -53.028698    30.083819    14.701356    14.704523 
  -80.295775    30.092249    14.707477    14.706187 
  -90.797306    30.097468    14.712468    14.705992 
   21.172343    30.099054    14.716275    14.704303 
  -33.205435    30.101488    14.716761    14.702292 
   80.421044    30.102593    14.715201    14.700902 
   18.344437    30.106915    14.713794    14.701983 
  -4.4439051    30.111971    14.713358    14.705809 
   20.935434    30.116849    14.713365    14.711705 
  -26.265172    30.122565    14.715715     14.71657 
   -84.39779     30.12723     14.71724    14.722734 
  -61.345632    30.128519     14.71724    14.727419 
  -83.398504    30.127354    14.717158     14.73168 
   81.463459    30.122853    14.714615    14.735394 
  -9.7188656    30.121611    14.711798    14.740077 
  -47.474576     30.11998      14.7117    14.745347 
  -67.451496     30.11645    14.714608    14.749268 
  0.64013247    30.110222     14.72114    14.751798 
  0.77611444    30.104019    14.729352    14.753278 
  -47.693397    30.097848    14.740726    14.756026 
   12.923313    30.089769    14.752677    14.759489 
   60.790255    30.082207     14.76387    14.762844 
   105.39181    30.077076    14.773087    14.767354 
   13.835156    30.076161    14.780186    14.772528 
   25.450607      30.0758    14.787584    14.777279 
   1.1624202    30.076456    14.794999    14.778981 
   44.000571    30.077159    14.800281    14.781775 
   45.532096    30.079623    14.803336    14.784607 
  -74.056909    30.083907    14.808827    14.788504 
  -108.69954    30.085229    14.818924    14.790274 
  -23.558448    30.082203    14.829109    14.791065 
   60.044505    30.078235    14.838425    14.790955 
   61.589006    30.076668    14.843396    14.793145 
   -1.636749    30.077565    14.842949    14.795244 
 -0.63080723    30.078397    14.838784    14.796555 
   15.129285    30.079204    14.832483    14.796776 
  -14.315264    30.080615    14.827561    14.797781 
  -79.018908    30.081454    14.820187    14.798059 
  -32.248802    30.079132    14.812621     14.79799 
   36.544677     30.07552    14.807234    14.793621 
   92.235338    30.073371    14.804749    14.784846 
   40.319219     30.07491    14.802778    14.775356 
  -11.775656    30.078062    14.800429    14.764065 
  -41.515371    30.080743    14.796931    14.750289 
  -14.252663    30.081764    14.795217    14.738509 
  -2.5174323    30.082214    14.793012    14.726075 
  -1.8646175    30.082564     14.79159    14.715861 
  -67.525128    30.082839    14.788587    14.705667 
  -84.331487    30.080414    14.787055     14.69857 
   17.274825    30.074614    14.790312    14.687469 
   6.0725021    30.069506    14.797226    14.674938 
  -48.770411    30.064641    14.804376    14.664951 
   30.019621    30.057825    14.812072     14.65514 
  -49.792168     30.05221    14.819276    14.648649 
   67.748174    30.044603    14.822062    14.646238 
   47.653855    30.039706    14.821646    14.644068 
   22.154023    30.036715    14.820521    14.642088 
   41.774681    30.034611    14.821532    14.640586 
   114.14277    30.034177    14.820234    14.640053 
   36.912681    30.038309     14.82175    14.642218 
  -25.769767    30.043918     14.82319    14.642647 
  -13.488395    30.048495    14.825903    14.642518 
   30.409822    30.052534    14.829547    14.642845 
   3.6736422    30.057788    14.834708    14.645792 
   54.970565     30.06319    14.842191    14.652472 
  -13.474033     30.07079    14.848236    14.659375 
  -17.856404    30.077852    14.852951    14.666533 
   52.495346    30.084199    14.859403    14.674655 
    29.33748    30.092646    14.863399    14.682129 
  -23.873956    30.102266      14.8659    14.687448 
   -99.38679    30.110932    14.867388    14.690576 
  -29.613664    30.115622    14.867964    14.691563 
  -31.111239    30.119127    14.872351    14.693677 
  -34.561595    30.121388    14.880256    14.695277 
  -43.870503    30.122267    14.888971    14.696243 
  -16.014143    30.121391    14.895859    14.695449 
   18.262428    30.119874    14.899994    14.691909 
     91.7481    30.119088    14.904066    14.686594 
   17.627745    30.121971     14.90663    14.679971 
  -74.648309     30.12556    14.908732    14.668452 
  -43.042763    30.126163    14.905527    14.654157 
    38.92754    30.125044    14.898088    14.642765 
   39.355024    30.125482    14.887391    14.639373 
   82.634349    30.127494    14.872384    14.636981 
   -62.31432    30.132812    14.858798    14.635363 
  -46.903439    30.135637    14.844882    14.633164 
  -95.112073    30.136586    14.832433    14.631328 
   4.4615209    30.133731    14.820607    14.628875 
   21.738162    30.131054    14.808793    14.624776 
   22.697563    30.129246    14.799205    14.622614 
    14.84429    30.128347    14.790321    14.621731 
  -14.525189    30.128041    14.783666    14.619425 
   16.208549    30.127154    14.779276    14.616849 
  -40.536363    30.126916    14.773176    14.611642 
  -9.7428817    30.125056     14.76702    14.605396 
   51.392237    30.122806    14.761296    14.598224 
   81.009205    30.122613    14.756132    14.589053 
   64.260271    30.125659    14.750106    14.581174 
  -19.807526    30.131276    14.745619    14.571934 
   43.761304      30.1361    14.740084    14.561596 
  -19.761185    30.142675    14.734278    14.552495 
  -28.343081     30.14846    14.728965    14.544149 
   -97.06439    30.153111    14.725064     14.53611 
  -111.29516    30.153879     14.72374    14.527083 
   19.586142    30.150196    14.722845    14.519359 
   159.19295    30.147296    14.721794    14.514627 
  -13.233896    30.150763    14.718942     14.51106 
   42.763553    30.153701    14.713787     14.50782 
  -29.945038     30.15835    14.705622    14.503533 
  -97.444748    30.161801    14.696117    14.498318 
  -13.079613    30.161355    14.686092    14.493621 
  -163.10617    30.160385    14.678536    14.489656 
  -68.699184     30.15289     14.67485    14.487462 
  -94.560275    30.142648    14.679566    14.482107 
  -75.400435    30.128624    14.685518    14.475992 
   71.937758    30.111583    14.691502    14.468891 
   269.82636     30.09742    14.697255    14.462171 
   62.351544     30.09405    14.702528    14.456125 
   71.454361    30.093174    14.706435    14.451391 
    26.11348    30.095156    14.706962    14.447016 
   55.115947    30.098183    14.704644    14.442305 
   -29.34695    30.103414    14.703577    14.438441 
  -87.490358    30.107472    14.703224    14.433785 
   -40.97832     30.10803    14.701917    14.429385 
  -33.746639    30.106948    14.697583    14.424417 
  -25.345754    30.104517     14.69438    14.418531 
   125.84908    30.101072     14.69192    14.415078 
  -10.624873    30.102661    14.691027    14.411558 
   50.586095    30.103825    14.690791    14.408993 
   16.019471    30.107013    14.690019    14.407689 
  -41.538632    30.110841    14.689054    14.404675 
  -111.00423    30.113008    14.685817    14.402763 
  -160.81728    30.110734    14.684103    14.401034 
  -115.91571    30.102028    14.683091    14.399603 
  -14.859896    30.088685    14.682245    14.400933 
   107.92232    30.074748    14.683706    14.402744 
   178.52644    30.065128    14.683406    14.409572 
   142.64722    30.062649    14.681662    14.417491 
   43.281915    30.065875    14.679156    14.427439 
  -3.4502947    30.070833    14.675575    14.438547 
  -73.364229    30.075653    14.670613     14.44512 
  -120.53136    30.077538     14.66809    14.449725 
   -48.88342    30.074602    14.669247    14.451254 
  -46.465525    30.069711    14.672509     14.45388 
   82.127229    30.062961    14.678853     14.45791 
   229.07277    30.059497    14.687728    14.461452 
   185.81196    30.065195    14.696238    14.464818 
   61.237566    30.078325    14.704835     14.46565 
  -13.633482    30.093905    14.714125    14.467859 
  -121.86729     30.10894    14.724532    14.469725 
  -185.89974      30.1191    14.735458     14.47175 
  -88.699076    30.121824    14.747719    14.472423 
  -87.859634    30.121001    14.758239    14.474625 
  -8.9698567    30.116662    14.768136    14.477372 
   20.727448    30.111965    14.776852    14.480312 
   78.736824    30.108097    14.784095    14.481996 
   67.306897    30.107379    14.789001    14.484524 
  -61.033263    30.109353    14.792246    14.488319 
  -88.001327    30.108885    14.792431    14.490514 
  -142.99219    30.104898    14.791619    14.491633 
  -168.74381     30.09519    14.790887    14.492468 
  -55.230381    30.078733    14.792441    14.494511 
   45.435904    30.060067    14.797087    14.497251 
    25.60902    30.043218    14.804243    14.499953 
   134.82124    30.027394    14.812783    14.501873 
   157.89976    30.016962    14.820072    14.503764 
   115.76129    30.012847    14.826554     14.50714 
   83.531533    30.013361     14.83279    14.509592 
   54.745508    30.017218    14.838624    14.509137 
  -19.532316    30.023263    14.840956    14.507629 
  -73.012773    30.028528    14.844344    14.507586 
  -84.569375    30.030872    14.845499    14.505936 
   25.307945    30.029834     14.84539    14.502368 
   110.55214    30.029807    14.845785    14.496666 
   64.812558    30.034203    14.844635    14.491474 
   32.206293    30.041191    14.843156    14.485856 
   115.74735    30.049468    14.841068    14.480167 
  -12.692521    30.062374    14.838911    14.473718 
  -87.735153    30.074773    14.836944    14.467975 
  -119.04433    30.083662    14.836227    14.464494 
  -77.489751     30.08779    14.837139    14.463268 
  -22.988348    30.088818     14.83922    14.462126 
  -26.245745    30.088926    14.841361    14.460918 
   42.144487    30.087985    14.839479    14.459057 
  -14.100918    30.088729    14.832019    14.455895 
  -26.294884    30.088909    14.822113    14.448486 
  -52.846497    30.088038    14.810713    14.440475 
  -35.188493    30.085053    14.799647    14.433052 
  -103.56724     30.08066    14.791623     14.42972 
   -74.89105    30.072124    14.789624    14.431638 
   11.326297    30.060593     14.79163    14.435779 
   16.864253    30.049515    14.795261    14.440158 
   93.761595    30.039111    14.797629    14.442945 
   135.59462    30.032458    14.798964    14.442644 
   28.320672    30.031229    14.800217    14.440723 
   51.444455    30.031132    14.800415    14.440969 
  -85.877585    30.033093    14.799826    14.441317 
  -72.060279     30.03162    14.800675    14.441854 
   62.629354    30.027263    14.799994    14.443793 
   92.321734    30.025412    14.799109    14.446751 
   154.35371    30.027254    14.801306    14.449506 
   110.56889     30.03527    14.805205    14.452541 
   133.20924    30.047709    14.810815    14.454633 
  -20.276379    30.065476    14.815987    14.454665 
  -113.84582    30.082432    14.820729    14.454773 
   -146.1959    30.094834    14.824252    14.456128 
  -128.01876    30.101388    14.824875    14.460354 
   4.4113687    30.102822    14.824874    14.467553 
   55.723519    30.104432    14.823869    14.475293 
    29.89268    30.108271    14.823232    14.486747 
    32.71754    30.113306    14.823177    14.496622 
    30.62338    30.119649    14.823281    14.508269 
  -40.681595    30.127217    14.823675    14.518537 
    -46.1801    30.133158    14.823037    14.526156 
  -59.990909    30.137252    14.818991    14.530411 
    -114.687    30.138946    14.814358    14.532956 
  -49.996417    30.136053    14.809052    14.537772 
   15.246609     30.13116    14.807144    14.547554 
   67.842129    30.126877    14.806955     14.56091 
   101.73424    30.125307    14.804254    14.575123 
   74.228566    30.127807    14.801577    14.588887 
   19.653121    30.133276    14.801584    14.599534 
  -5.0396217    30.139531    14.801823    14.604252 
  -38.523782    30.145585    14.799741    14.603447 
  -97.105111    30.150097    14.795376    14.600395 
  -72.473447    30.150725    14.789741    14.596779 
   13.550967    30.148455    14.782914    14.594884 
  -10.737849    30.146726    14.777795    14.600586 
    113.5605    30.144568    14.774955    14.613488 
   42.515466    30.146953    14.773749    14.631819 
  -47.974065    30.151038     14.77326    14.650147 
  -59.671567    30.153204    14.773839    14.665119 
  -158.02304    30.152983    14.775017    14.674317 
  -85.715122    30.146441    14.774787    14.678155 
    9.379638    30.136471    14.768739    14.678237 
   75.015075    30.126875    14.759279    14.676526 
   95.076059    30.120281    14.748013    14.678497 
   136.72016    30.117489    14.738635     14.68286 
   99.700517    30.120166    14.731895    14.688462 
  0.37723914    30.126832    14.728982    14.694576 
  -7.6487406    30.133512    14.728019    14.698783 
  -102.63149    30.139886    14.730906    14.702482 
    -140.599    30.142156    14.735736    14.701232 
  -82.669863    30.138801    14.743895    14.696373 
  -72.670544    30.132139    14.754536    14.688549 
   115.12959    30.122571    14.763462    14.680265 
   94.253732    30.117608    14.772269    14.675494 
   107.14744    30.116414    14.777899    14.675969 
   42.735014    30.119507    14.781664    14.678048 
   27.617822    30.124309    14.782242    14.681462 
  -94.595632    30.130216    14.782112    14.682621 
  -153.69499    30.132339    14.780143    14.679476 
  -163.92557    30.128315    14.776781     14.67092 
  -69.423899    30.117733    14.772329     14.65989 
  -17.751232    30.104374    14.771591    14.648145 
   118.65067    30.090306     14.77272    14.642737 
   141.58434    30.080983    14.774783    14.642553 
   66.740685    30.077324    14.775416    14.647043 
   86.456019    30.076334    14.773695      14.6545 
  -21.554017    30.078802    14.769783     14.66209 
  -89.458601    30.080409    14.764089    14.668917 
  -115.86557    30.078437    14.756588    14.671446 
  -97.485227     30.07183    14.749976    14.670049 
  -23.693686    30.061324    14.744421    14.666736 
   82.468608     30.04987    14.739894    14.666206 
   82.038185    30.041715    14.736726    14.667876 
   108.88936    30.036842    14.734041    14.671625 
   75.887582    30.036324    14.729409    14.678709 
   73.211447    30.038842    14.724234    14.688317 
  -10.874137    30.044288    14.718784    14.702411 
  -134.56489    30.049299    14.713622    14.718828 
   -79.07928    30.048927    14.708555    14.737986 
   -87.03252    30.045393    14.703282    14.753788 
   36.409271    30.038377    14.697184    14.766636 
   71.104329    30.032817    14.691019    14.775193 
   106.06309    30.030102    14.685088    14.780593 
   111.40355    30.031629    14.680124     14.78334 
   142.43895    30.037612     14.67938    14.785702 
   40.088603    30.049293    14.680036    14.787225 
  -84.336142    30.062577    14.677232    14.786092 
  -61.284827    30.072488    14.670834    14.786603 
  -45.802674    30.079947    14.663363    14.788586 
  -81.416944    30.085575    14.655659     14.79035 
   38.320016    30.087946    14.648061    14.791902 
   107.90555    30.091849    14.642027     14.79171 
   35.813945    30.100069    14.638083    14.789579 
  -6.9040293    30.109721    14.632182     14.78757 
   69.150979    30.119097    14.626826    14.785506 
   65.020096    30.131239    14.620351    14.784498 
  -147.81112    30.145982    14.612752    14.785735 
  -102.05556    30.154813    14.605901    14.790606 
  -112.78404    30.159561     14.60002    14.800827 
  -92.848997    30.159798    14.594599    14.810925 
  -66.864341    30.156321    14.588239    14.822225 
   14.142127    30.150169    14.580814    14.833515 
   16.652412    30.144584    14.572951    14.845942 
   16.504618    30.139664    14.563487    14.856457 
   47.051362    30.135404    14.552076    14.866241 
  -53.084118    30.133027     14.54111     14.87767 
  -76.421131    30.128526    14.532643    14.889829 
  -111.94055    30.120968    14.527767    14.903557 
  -155.48117    30.108932     14.52234    14.918767 
   5.0334346    30.090678    14.516039    14.936203 
   145.20144    30.072625    14.511492    14.954211 
   105.90335    30.060379    14.509543    14.971923 
   3.4626235     30.05237    14.506304    14.987995 
   62.776539      30.0445    14.501302    15.001135 
   101.52252     30.03914    14.494268    15.014637 
  -23.154628    30.037841    14.488541    15.026497 
  -52.189973    30.035616    14.482987    15.037862 
  -8.5974522    30.031304    14.479255     15.04973 
   30.426513    30.026648    14.476102     15.06143 
   42.640395    30.023208     14.47716    15.073048 
   95.884827    30.021475    14.479072     15.08069 
   128.01223    30.023577    14.480193    15.084992 
   86.659848    30.030799    14.479389    15.087396 
   28.348275    30.041487    14.474972    15.089775 
   45.814785     30.05331    14.469841    15.092232 
  -69.215438    30.066965    14.463658    15.096086 
  -125.23188    30.077852    14.456064    15.102119 
  -153.93739    30.083729    14.451648    15.107835 
  -58.236288    30.083449    14.448184    15.112678 
   135.15913    30.080839    14.445935    15.117002 
   80.555513    30.083636    14.444724    15.118466 
  -47.766405    30.089654    14.441242    15.115841 
   39.892116    30.093763    14.437548    15.109768 
  -46.475928    30.099467     14.43182    15.102447 
  -31.384322    30.103312    14.424313    15.096098 
   -108.3755    30.105901    14.415781    15.091135 
  -126.01135    30.104155    14.410113    15.090102 
  -116.62453     30.09737     14.40888     15.09101 
    22.95502    30.085919    14.408541    15.092734 
     71.2831    30.075386    14.407323     15.09497 
   141.49375    30.067704    14.403686    15.092295 
    89.20292    30.065683    14.400285    15.088513 
    89.66149    30.067229    14.397662    15.082029 
   21.269593    30.072362    14.393748    15.075156 
  -80.784402    30.078346    14.389221    15.068752 
  -82.482976    30.081098    14.383367    15.064119 
  -25.282783    30.080551    14.377497    15.061376 
  -48.179564    30.078993    14.372287    15.063272 
   48.131154    30.075507    14.369962    15.067375 
    131.5345    30.073947    14.368879    15.068298 
   189.54558    30.077648    14.366581     15.06475 
   63.325508    30.088931    14.363665    15.056689 
   81.441347    30.102747    14.358364    15.049938 
   -38.85463    30.119821    14.352126    15.045269 
  -234.35792     30.13534    14.345222    15.040666 
  -177.97517    30.141485    14.338196    15.039413 
  -110.16687    30.140511    14.333992    15.039191 
  -68.436823    30.135131    14.333591    15.042561 
   60.706371    30.127013    14.333702    15.047551 
   29.147766    30.121323    14.330624    15.052123 
   61.811965    30.116799    14.323768    15.054438 
   31.521074    30.114748    14.313088     15.05247 
   1.6920079    30.113957     14.29897    15.051374 
  -76.206605    30.113234    14.284103    15.052743 
  -68.292033    30.109463    14.269083    15.056027 
  -41.345174     30.10296    14.254155    15.062002 
  -56.525821    30.094804    14.241616    15.071188 
   100.25882    30.084386    14.235079    15.078037 
    124.6973    30.077979    14.236624    15.084346 
   125.61147    30.076559    14.239203    15.092348 
   84.131311    30.080164    14.240304    15.099455 
  -2.1789085    30.087135    14.238938    15.105177 
  -21.000805    30.094018    14.236293    15.108614 
   -106.5203    30.100061    14.227976    15.109018 
  -121.48224    30.101843    14.218066    15.109753 
   -51.09515    30.098766    14.211748    15.110103 
  -11.238118    30.093645    14.207653     15.11403 
   50.358117    30.088075    14.204604    15.119288 
   136.10626    30.084519    14.202251     15.12357 
   74.538648    30.086407    14.196451    15.126792 
 -0.34244255    30.091277    14.189554    15.130671 
  -6.5777163    30.096133    14.182129    15.133575 
  -51.322412    30.100726    14.176696    15.135786 
  -180.05704    30.103266     14.17176     15.13452 
  -100.95667    30.098604    14.168342    15.136076 
   11.243059    30.089904    14.167615    15.138327 
   82.104865    30.081653     14.16922    15.140835 
   121.12492    30.076687    14.169827    15.142334 
   126.53546    30.076565    14.170488    15.142694 
   22.764663    30.081505    14.170338    15.144236 
  0.37118349    30.087355    14.170503    15.144136 
  -99.340578    30.093221    14.169176    15.143157 
  -42.942528    30.095112    14.166357    15.142904 
  -72.078284    30.095286    14.160703    15.142242 
  -47.895381    30.092577    14.155128    15.141378 
   12.955234    30.087952    14.147934    15.146109 
   98.359807    30.083846     14.14267    15.153774 
  -1.1529664    30.083673    14.140819    15.163048 
  -59.399153    30.083455    14.140508    15.173252 
   -166.7937     30.08086    14.143403    15.182426 
  -44.890597    30.071594    14.150674    15.187309 
  -14.462894    30.060532     14.16169    15.189851 
   19.468401    30.048892    14.173336    15.192028 
   10.091874     30.03803     14.18223    15.195443 
   9.0737643    30.027573    14.190086    15.200011 
   112.84195    30.017478    14.197759    15.208989 
[...]
  -70.611955    29.965841    15.218863    14.652488 
  -65.090214    29.969564    15.209969     14.64586 
  -56.647613    29.970683    15.198839    14.639132 
   37.822394    29.969536    15.186826     14.63205 
   3.4158676    29.969903    15.173861    14.623876 
   141.37245    29.970405    15.161625    14.616666 
   121.15131    29.976563     15.14961       14.612 
   146.57657    29.987567    15.136344    14.608179 
  -46.378001    30.004434    15.122676    14.602047 
  -114.96395    30.019446    15.110496    14.596437 
  -72.312054    30.029859    15.099203     14.59307 
  -54.579034     30.03738    15.090495    14.591791 
  -32.504413    30.042717    15.082409    14.590172 
  -25.809592    30.046754    15.073384    14.589599 
  -49.127437    30.049759    15.065208    14.590962 
   -7.708549    30.050799    15.059768    14.594899 
   73.796316    30.051531    15.060554     14.60244 
  -2.7255117    30.055214    15.062667    14.611392 
  -101.25658    30.058789    15.067052    14.620216 
  -98.967304    30.058313    15.074084    14.627979 
  -29.442983    30.053878    15.080574    14.634603 
  -41.683023    30.048266     15.08658    14.638311 
  -8.9358686    30.040986    15.093685    14.639764 
   37.443392    30.033349     15.10118    14.640683 
    32.53588     30.02721    15.110081    14.640629 
   46.490821    30.022372    15.119399     14.64421 
   114.01849    30.019394    15.131165    14.649702 
  -8.5744908    30.020976    15.140201    14.659035 
   12.299988    30.022216    15.147842    14.665352 
  -54.710101    30.023947    15.155548    14.670541 
   23.331209    30.023491     15.16432       14.673 
   31.875213    30.023967    15.171959    14.671012 
   55.241029    30.025718    15.180831    14.665616 
  -36.311333    30.029679    15.189395    14.656507 
   30.118742    30.032188    15.196169    14.645751 
   66.630364    30.035901    15.198846    14.636468 
  -8.6927334     30.04228    15.200204    14.628336 
   -22.02486    30.048311    15.200832      14.6226 
   20.868622     30.05346    15.201943    14.619509 
  -76.421313    30.059445    15.204305    14.618113 
   -66.62347    30.062373    15.208109    14.616625 
  -50.634154    30.062635    15.211567     14.61504 
  -28.399108    30.060873    15.216897    14.613595 
  -93.388543    30.057974    15.221937    14.612529 
   45.278985     30.05134    15.227567    14.610096 
   38.073791    30.046517    15.232125    14.608122 
   30.706358    30.043217    15.239246    14.607365 
   22.533519    30.041146      15.2472    14.610649 
   -31.07367    30.039975    15.256554    14.614554 
  -41.101079    30.037562    15.269431    14.621692 
  -102.69537    30.033504    15.282471    14.629241 
    35.24991    30.025339    15.293929    14.635216 
  -35.696564    30.018584    15.302443    14.642251 
   147.74845    30.010401    15.308996    14.646845 
   165.66606    30.008128    15.311816    14.652041 
   72.647061    30.012481    15.315524      14.6562 
   30.833762    30.019741    15.321954    14.658935 
    10.66192    30.028234     15.32947    14.662824 
   -74.81557    30.037153    15.335046    14.667802 
  -99.830889    30.043079    15.339169    14.673776 
  -74.285807    30.045013    15.340592    14.680049 
  -32.081596    30.043975    15.338247    14.685662 
   22.331464    30.041653    15.333966    14.690212 
   105.16701    30.040225    15.328814    14.689646 
   42.468582    30.043004     15.32455    14.687792 
  -46.553953    30.047481    15.321058    14.685912 
  -105.55193    30.050096      15.3166    14.685289 
  -35.652823     30.04849      15.3136     14.68916 
   -51.57551    30.045457    15.309042     14.69594 
  -51.769406    30.040361    15.304244    14.704711 
    22.91298    30.033194    15.296849    14.713493 
   131.13834    30.026943    15.285711    14.721584 
   160.07783    30.025939    15.273896    14.727369 
   40.126558    30.031337    15.258351    14.730343 
  -32.466147    30.038341    15.243549    14.730908 
  -28.579049    30.044045    15.229498      14.7331 
   -77.48942    30.048607     15.21725     14.73833 
  -78.993307    30.050069    15.207795    14.746595 
  -62.191095    30.048371    15.199973    14.756518 
   16.543879    30.044186    15.191248    14.769688 
   26.660888    30.040662    15.182287    14.782785 
   11.915604    30.038205    15.169529    14.794757 
   73.445121    30.036225    15.152478    14.802539 
   86.925304    30.037182    15.132978    14.802877 
  -3.7000254    30.041616    15.115784    14.801477 
  -11.427798    30.045903    15.102949    14.801697 
   -74.20028    30.049732     15.09577    14.804233 
  -84.014201    30.050593    15.090804    14.808235 
  -107.81656    30.048094    15.085533    14.813875 
  -53.263632    30.041282    15.077847    14.820194 
  -21.138019    30.032339    15.067276    14.824317 
    45.90938    30.022551    15.050853    14.826131 
   129.96925    30.014599    15.032419    14.825732 
   74.504206    30.011846     15.01694    14.825117 
   79.606814    30.012074    15.004109    14.824342 
  -22.725215    30.015485    14.997668    14.825014 
     -29.827    30.017987    14.996835    14.827875 
  -111.64767    30.019297    14.997821    14.830273 
  -154.67384     30.01614    14.998651    14.833256 
  -101.95672    30.006797    14.995908    14.836972 
   16.021759    29.993375    14.988827    14.838891 
    136.3596    29.980594    14.981921    14.838206 
   214.67793    29.973268    14.975279    14.832917 
   130.83909    29.974528    14.968118    14.825568 
   99.053209    29.981023    14.965398     14.81779 
  -58.207059    29.991479    14.964883    14.813603 
  -186.41086    29.999607    14.967743    14.812621 
  -171.11512    30.000279    14.973043    14.814774 
  -102.72885    29.994106    14.976691     14.81983 
   36.355067    29.983823    14.976533    14.824161 
   76.578784    29.974995     14.97113    14.825309 
    91.08401    29.969231    14.961525    14.824511 
   130.90286    29.967109     14.95014    14.824306 
   125.32652    29.970224    14.940983    14.823984 
  -78.690559    29.978352     14.93702    14.825885 
  -89.959789    29.983332    14.936938    14.830288 
  -88.324129    29.984713    14.940764    14.839137 
  -52.638444    29.982562    14.944599    14.848053 
   23.630131    29.978305    14.948132    14.854704 
   51.049918    29.974994    14.949496    14.859039 
   99.538323    29.973724    14.946854    14.863381 
  -42.380386    29.976436    14.937119    14.865484 
  -19.325657    29.977453    14.924557    14.864866 
   54.006446    29.977697    14.911272    14.865025 
   13.207417    29.980101    14.901683    14.865269 
  -79.314967    29.983033    14.896918    14.864673 
  -37.284676    29.982793    14.893868     14.86411 
  -3.6614996    29.981061    14.889671    14.862093 
   36.788771    29.979183    14.885133    14.858854 
   15.111638    29.978776    14.880092    14.853467 
   107.67259    29.978974     14.87087    14.842892 
   -35.38557    29.983479     14.86215    14.829297 
    39.65617    29.986568    14.852847    14.817102 
  -59.768118    29.991244    14.846221    14.805586 
  -53.332716    29.993528    14.841398     14.79878 
  -55.610082     29.99368     14.83763    14.792819 
   45.203316    29.991607    14.834109    14.787351 
  -1.9854535    29.991342    14.828084    14.781893 
  -27.546031    29.990998    14.817744     14.77298 
  -42.953812    29.989552    14.804193    14.760792 
   4.0648747    29.986388    14.788631     14.74945 
   19.283061    29.983386    14.774191    14.739151 
   95.960804    29.981156     14.76126    14.733553 
  -12.140296    29.982764      14.7489    14.731839 
   -7.449189    29.983887    14.737812    14.731636 
  -68.901651    29.984712    14.728433    14.730611 
  -75.614307     29.98278    14.718521    14.729067 
  -25.579682    29.977824    14.706444    14.728322 
   7.5158203    29.971845    14.692834     14.72806 
  -5.1933047    29.966166    14.677992    14.729413 
   38.730604     29.96028    14.664022    14.731512 
   45.408454    29.955943    14.650321    14.736673 
  -16.086279    29.953422    14.639707    14.743016 
   -7.769292    29.950258    14.630774     14.75086 
   30.068135    29.946783    14.621965    14.761023 
   18.736694    29.944511    14.615037    14.769886 
   59.702225    29.942988    14.607881     14.77641 
   3.6652279    29.943853    14.600606    14.781074 
  -32.738909    29.944865    14.594834    14.784813 
   15.230834    29.944568     14.58921    14.792161 
   39.821326    29.944879    14.583587    14.799574 
   70.121779    29.946784    14.582353    14.805741 
    20.25323    29.951493    14.582072    14.811944 
  -61.827978    29.957013    14.581008    14.820185 
  -113.87775    29.960059    14.578878    14.828826 
  -67.292967     29.95855    14.574337    14.835858 
   54.328548     29.95435    14.569721    14.841006 
   14.895789    29.952322    14.565728    14.846551 
   19.887642    29.950891    14.564505    14.848942 
   69.849091    29.950255    14.563291    14.851167 
   35.954386    29.952413    14.560468    14.854215 
  -15.519943    29.956009    14.556578    14.859639 
  -38.424643    29.958984    14.553164    14.865918 
   26.699886    29.960423    14.552491     14.87585 
  -87.869609    29.962929     14.55283     14.88531 
  -43.550195     29.96192    14.554983     14.89389 
  -103.40723     29.95917    14.557977     14.90076 
  -5.4692394    29.952283    14.560266    14.907975 
   101.13882    29.945178    14.562916    14.914924 
   43.902911    29.942118    14.564984    14.923797 
   95.851713    29.940814    14.569427    14.934925 
   87.853271    29.943344    14.574176    14.947596 
  -0.7766409    29.949388    14.579257    14.962937 
  -38.055453    29.955402    14.583513    14.980447 
  -45.930166    29.959893    14.585988    14.997145 
  -11.348186    29.962547    14.586828    15.010339 
  -38.521589    29.964747    14.585993     15.02203 
   64.005326    29.965406    14.584428    15.031682 
   45.308109    29.968625    14.581616    15.039962 
-0.016049473    29.973657    14.577953    15.049402 
  -7.0525209    29.978688    14.574324    15.060408 
  -43.464142    29.983436    14.571911    15.074514 
  -98.535615    29.986447    14.569033    15.085941 
  -84.967666    29.985516    14.561253    15.094777 
   15.068326    29.981186     14.55066    15.099988 
  -22.540844    29.977459    14.537878    15.103928 
   17.424976     29.97283    14.524693    15.106192 
   25.648692    29.968898    14.513839    15.106409 
   64.705776    29.965992    14.505195    15.106532 
   32.949643    29.965675      14.4996    15.103001 
   41.488849    29.966675    14.497415    15.100425 
  -5.0477667    29.969335    14.501544    15.099044 
  -111.52272    29.971793    14.508483    15.097939 
  -36.763124    29.969791    14.517857    15.096738 
   79.850082    29.966317    14.527981    15.095538 
   68.090018    29.966038    14.538204    15.094528 
   43.544832    29.968482    14.548643    15.090519 
  -37.535833    29.972668    14.562573    15.084704 
  -97.800555    29.975353    14.576409    15.076383 
  -52.781198    29.974125    14.591891    15.068327 
  -125.77141    29.970787    14.611547    15.062298 
   43.218712    29.962417    14.634167    15.061209 
   61.532952    29.955776    14.652201    15.060803 
   89.068482    29.951597    14.667937    15.061254 
   64.134407     29.95098    14.680834     15.06229 
  -24.289334    29.952929    14.692816    15.063492 
  -45.691405    29.953906    14.703517    15.059934 
    -58.9715    29.953055    14.708717    15.053708 
  -75.352415    29.949846    14.711337    15.043624 
   60.912221    29.943623    14.712518    15.032838 
   119.49435    29.939835    14.715551    15.027145 
   73.763351    29.940828    14.716584    15.024321 
   64.563485    29.944772    14.714897    15.021348 
  -9.3471535    29.951297    14.710916    15.017798 
   30.620218    29.957449     14.70767    15.014826 
  -6.1018231    29.964826    14.705921    15.008076 
  -9.0800305    29.971959    14.707306    14.999734 
  -69.602923    29.978728    14.707163    14.987917 
   -41.25269    29.982713    14.703042    14.973579 
  -16.341862    29.985049    14.696808    14.957501 
 -0.31454294     29.98673    14.692968    14.947288 
   33.327482    29.988399    14.696012    14.944349 
   7.5193068    29.991401    14.701252    14.940454 
   54.480241    29.994704    14.708506    14.933984 
  -2.6718542    30.000186    14.716138    14.923287 
  -96.150921    30.005561    14.726378    14.910519 
  -19.662294    30.007091    14.736383    14.894531 
  -57.716476    30.007833    14.745344    14.874432 
  -51.183431    30.006267    14.752854    14.852741 
   25.781395    30.002654    14.754996    14.831152 
   19.244167    30.000072     14.75443    14.814526 
   27.019115     29.99826    14.758094    14.804013 
   55.890203    29.997528    14.766036    14.800249 
  -14.346106    29.999032    14.776904    14.795824 
  -47.314465    29.999962    14.789658    14.789975 
  -51.927074       29.999    14.803873    14.784205 
  -89.747524     29.99596     14.81841    14.777725 
   -36.04734    29.989331    14.830122    14.771626 
   81.766085     29.98126     14.84115    14.763848 
   172.08082    29.976459    14.847745    14.757855 
   73.070259    29.978542    14.853182    14.752523 
   83.777371    29.983547    14.860741    14.749933 
   44.736457    29.991904    14.873622    14.746883 
  -92.079255     30.00205    14.887404    14.743648 
   -121.4261    30.008513    14.903532    14.740941 
  -122.38601    30.010118    14.923589    14.736268 
  -70.305373    30.006829    14.944393    14.733265 
   158.36372    30.000727    14.965351    14.730267 
   193.73278     30.00096     14.98348    14.727531 
   63.662439    30.008942    14.996801     14.72546 
  -16.129064     30.01947    15.009236    14.726043 
  -115.95151    30.029353    15.018155    14.727753 
  -117.37498    30.034599     15.02705    14.731006 
  -83.127543    30.035149    15.036184    14.735108 
  -23.969468    30.032374     15.04444    14.738272 
  -11.550405    30.028641    15.052002    14.741071 
   25.460503    30.024445    15.058977    14.743259 
   123.36597    30.021268     15.06856     14.74627 
   131.59808    30.023025    15.076479    14.747582 
   36.636426    30.030046    15.084513    14.749119 
  -74.546298    30.038533    15.089528    14.752618 
  -182.28863    30.044038    15.093031    14.757632 
  -220.52581    30.042252     15.09404    14.766129 
  -68.367707    30.031644    15.094298    14.774034 
   42.286093    30.018302    15.097833    14.781359 
   50.717201    30.006651    15.103152    14.785365 
    206.3182    29.997029    15.110149    14.787422 
   21.787781    29.995659    15.122021    14.787944 
   44.792266    29.995161    15.137518    14.786095 
  -13.659915    29.996455    15.154288    14.786262 
  -54.186932    29.997202    15.168362     14.78669 
  -71.765181    29.995782    15.180842    14.788337 
  -36.566893    29.991491    15.191874    14.790673 
  -30.813063    29.985738    15.199956    14.793565 
   88.673024    29.978752    15.207617    14.795016 
   38.362108    29.975313     15.21598    14.795939 
   169.43921    29.973408    15.224756    14.798656 
   78.809426    29.978281    15.231539    14.800852 
   13.123065    29.986307    15.236702    14.802317 
  -57.193169    29.994857    15.240079    14.804185 
  -99.912045     30.00112    15.240064     14.80539 
  -87.554122    30.003386    15.235593    14.805241 
  -67.350123     30.00215    15.228343    14.803836 
  -47.714706     29.99822    15.220056    14.800173 
   -29.57421    29.992381    15.214107     14.79652 
   34.532701     29.98536    15.210911    14.793466 
  -1.9003509    29.979719    15.209952    14.789565 
   66.819249    29.974003    15.210992    14.786439 
   5.2464847    29.970959    15.211709    14.784052 
   22.576441    29.968126    15.211469    14.782484 
   11.285386    29.966195    15.208278    14.783591 
   -11.17152    29.964716    15.200119    14.783935 
  -19.580153     29.96279    15.189073    14.783683 
   22.303089     29.96008    15.175546    14.781318 
   65.271992    29.958263    15.162721    14.777909 
   74.389131    29.959057    15.152775    14.775123 
   11.971461    29.962826     15.14784    14.771734 
  -37.764623    29.967074    15.144313    14.765604 
   55.973332    29.969812    15.141967    14.758084 
   59.410824    29.974789    15.140139    14.750357 
  -57.528018    29.982141    15.138432    14.747699 
  -144.04726    29.987193     15.13564    14.747905 
  -68.389825    29.986483    15.130318    14.751975 
   2.6158001    29.983038    15.123126    14.759709 
  -13.356524    29.979696     15.11674    14.768687 
   75.522968    29.975821    15.111729    14.777534 
   52.266464    29.974967    15.110386    14.787803 
    36.95787    29.976203    15.112153    14.799847 
  -59.335866    29.978918    15.113689    14.812003 
  -118.06031    29.979259    15.114831     14.82615 
  -127.92551    29.974878    15.116488    14.838834 
  -62.300643    29.965379    15.117568    14.847453 
    65.01603    29.953389    15.117056    14.855934 
   10.378018    29.943999    15.114125    14.865143 
    44.51353    29.935025    15.109732    14.874389 
   107.77912    29.927831    15.107722    14.887831 
   63.800016    29.924948    15.108267    14.903719 
   92.334965    29.924617     15.11009    14.917341 
   41.498706     29.92798    15.115422    14.929278 
  -58.521492    29.933002     15.12023    14.935891 
  -54.174572    29.935684    15.125271    14.937584 
  -164.69112    29.936198    15.127439    14.935798 
   21.740881    29.930125    15.127385    14.930689 
   81.039142    29.924922    15.124598    14.923594 
   140.61094     29.92296    15.119289    14.918219 
   86.951136    29.926623    15.117067    14.915864 
   84.631716    29.933764    15.117289    14.917069 
   83.637711     29.94429    15.120247    14.917161 
   -13.80478    29.958161    15.123924    14.916635 
  -55.662771     29.97148    15.127007    14.916133 
  -114.10201    29.982573    15.127977     14.91436 
   -170.2404    29.989102    15.127055    14.908873 
  -117.67504    29.988821    15.125742    14.902707 
  -49.728893    29.983833    15.122185    14.894195 
   42.525715    29.976856    15.118391      14.8861 
   103.50516     29.97158    15.117652    14.882634 
   162.61627    29.970444    15.121263    14.877396 
   16.880718    29.975813    15.127768    14.869615 
  -65.635569    29.981857    15.135112    14.863051 
  -115.43095    29.985276     15.14233    14.858379 
  -99.961028    29.984077    15.147884    14.854637 
  -81.097306     29.97888    15.150766     14.85058 
   22.285115    29.970439    15.151255    14.847604 
   6.1515726    29.962889    15.152144    14.844819 
   52.644556    29.955586    15.152887    14.844328 
Loop time of 301.793 on 4 procs for 50000 steps with 8887 atoms

Performance: 286289.118 tau/day, 165.677 timesteps/s
99.9% CPU use with 4 MPI tasks x no OpenMP threads

MPI task timing breakdown:
Section |  min time  |  avg time  |  max time  |%varavg| %total
---------------------------------------------------------------
Pair    | 182.85     | 221.44     | 259.92     | 249.3 | 73.37
Bond    | 0.0087349  | 0.012468   | 0.017086   |   3.1 |  0.00
Neigh   | 31.123     | 31.154     | 31.187     |   0.6 | 10.32
Comm    | 8.7792     | 47.057     | 85.415     | 537.8 | 15.59
Output  | 0.71215    | 0.76343    | 0.86099    |   6.9 |  0.25
Modify  | 0.64903    | 0.81923    | 0.99618    |  17.2 |  0.27
Other   |            | 0.5477     |            |       |  0.18

Nlocal:    2221.75 ave 2674 max 1775 min
Histogram: 2 0 0 0 0 0 0 0 0 2
Nghost:    5512.75 ave 5960 max 5060 min
Histogram: 2 0 0 0 0 0 0 0 0 2
Neighs:    340994 ave 398702 max 283643 min
Histogram: 2 0 0 0 0 0 0 0 0 2

Total # of neighbors = 1363977
Ave neighs/atom = 153.48
Ave special neighs/atom = 0.00540115
Neighbor list builds = 5000
Dangerous builds = 5000
Total wall time: 0:05:01
