LAMMPS (17 Nov 2016)
Reading data file ...
  orthogonal box = (0 0 0) to (60 30 30)
  2 by 1 by 2 MPI processor grid
  reading atoms ...
  8887 atoms
  scanning bonds ...
  1 = max bonds/atom
  reading bonds ...
  9 bonds
Finding 1-2 1-3 1-4 neighbors ...
 Special bond factors lj:   0          0          0         
 Special bond factors coul: 0          0          0         
  2 = max # of 1-2 neighbors
  2 = max # of 1-3 neighbors
  4 = max # of 1-4 neighbors
  6 = max # of special neighbors
10 atoms in group polymer
1 atoms in group first
Neighbor list info ...
  1 neighbor list requests
  update every 1 steps, delay 10 steps, check yes
  max neighbors/atom: 2000, page size: 100000
  master list distance cutoff = 3.3
  ghost atom cutoff = 3.3
  binsize = 1.65, bins = 37 19 19
Setting up Verlet run ...
  Unit style    : lj
  Current step  : 0
  Time step     : 0.02
Memory usage per processor = 4.13948 Mbytes
v_ftotal c_com[1] c_com[2] c_com[3] 
   23.786285         17.5           15           15 
   17.007268    17.501301    15.003346    15.011499 
  -34.819305    17.503283    15.006084     15.02087 
  -56.231222    17.503872    15.006189    15.027413 
   39.709609    17.502212    15.007352    15.032412 
   20.503898     17.50214    15.008688    15.038913 
   26.922801    17.502888    15.010346    15.048231 
   7.9640301    17.504713    15.010734    15.057659 
   26.018161    17.506857    15.010929    15.067317 
  -28.768207    17.510042    15.012785    15.074868 
   -35.18041    17.512075    15.015889    15.082339 
  -27.193157    17.512702    15.019453    15.090529 
    44.93584    17.512241    15.024421    15.097657 
  -27.741239    17.513577     15.02847    15.105567 
  -11.138374    17.513803    15.032408    15.114595 
   9.8257239    17.513585    15.037623    15.121307 
  -49.249857    17.513759     15.04159    15.129712 
   17.502388    17.511963    15.045012    15.136582 
  -6.4740843    17.510867    15.049845    15.143053 
   16.344715    17.509512    15.052986    15.149757 
  -13.262613    17.508811    15.054436    15.158568 
  -12.008411     17.50758    15.054624    15.166085 
   43.447066    17.505868    15.056215     15.17405 
  -48.273426    17.505894    15.056448    15.184147 
  -7.0869618    17.503989    15.056198    15.193808 
  -38.429652      17.5018    15.055036     15.20308 
  -17.109842    17.498075    15.053648     15.21253 
    -42.7809    17.493665    15.054982    15.220619 
  -18.109376    17.487544    15.059294    15.229597 
  -22.160295    17.480698    15.060489    15.238746 
  -23.077239    17.472966    15.061955    15.246918 
   38.464759    17.464311    15.063547    15.254632 
   28.826947    17.457195    15.063451    15.262482 
  -27.861866    17.451231    15.061379     15.27294 
   52.234385    17.444153    15.058634    15.282431 
  -25.318785    17.439165    15.056439    15.292018 
  -5.8359178    17.433164    15.055281     15.30045 
    2.246315    17.426929    15.056253     15.30892 
  -16.821201    17.420784    15.060218    15.316197 
 -0.46037027    17.413966    15.064456     15.32442 
  -32.896994     17.40713    15.068494    15.330978 
   6.4042799    17.398978    15.070982    15.336558 
   43.179073    17.391082    15.073865    15.342744 
  -18.628064    17.384914    15.076871    15.349105 
   31.867869       17.378    15.081223    15.355021 
  -28.525043    17.372361    15.085737    15.360179 
   28.298813    17.365581    15.088774     15.36407 
   23.482306    17.359933     15.09075    15.369308 
   -18.07241    17.355224    15.092766    15.373263 
  -13.981469    17.349792    15.093862    15.377355 
  -12.326951    17.343801    15.093392    15.382579 
   10.919193    17.337317    15.093046    15.388157 
    8.731808     17.33127    15.092866    15.393354 
   30.170908    17.325572    15.092427    15.398863 
   71.491386    17.321081    15.091312    15.404818 
   1.2964093    17.319449    15.089277    15.410039 
  -1.6847566     17.31787    15.087098    15.416474 
   2.0017339    17.316223    15.086611    15.424117 
   45.868537    17.314656    15.085104    15.431037 
  -12.408541    17.314923    15.081786    15.437306 
   5.2151301    17.314695    15.078548    15.442711 
  -25.539525    17.314675     15.07606    15.447519 
   34.857003    17.313633    15.075728    15.448555 
  -30.586736    17.313986    15.075267    15.449775 
-0.033979168    17.313115    15.074185    15.451985 
  -38.240549    17.312243    15.073706    15.454428 
  -40.140717    17.309842    15.074342    15.456445 
    17.16922    17.305834    15.073758     15.45778 
   23.930644    17.302514    15.074587    15.460232 
  -2.5757753     17.30015    15.073838    15.464614 
   31.870794    17.297684    15.070353    15.469684 
  -23.582427    17.296492    15.067218    15.474119 
  -24.667769    17.294357    15.064693    15.480417 
  -12.383997    17.291236    15.063127    15.487275 
  -10.433407    17.287619    15.063993    15.493254 
  -44.523098    17.283585    15.064228    15.500402 
   27.109778     17.27777    15.064582    15.507781 
   -4.068619    17.273039    15.064537     15.51281 
   37.237002    17.268145    15.062876    15.516628 
  -48.391392    17.264741    15.060724     15.51862 
  -9.9038919    17.259401    15.057107    15.522114 
  0.47169485    17.253666    15.054085    15.525074 
   38.797854    17.247949    15.050486    15.525728 
    8.841145    17.243783    15.047055    15.526937 
   -12.12149    17.239972    15.043449    15.528411 
   46.546378    17.235676    15.039411    15.530751 
   44.131779    17.233241    15.034623    15.534342 
   5.2380682    17.232572    15.030494     15.53599 
   6.1539076    17.232112    15.027708    15.537084 
  0.45569002    17.231899    15.024756    15.537548 
  -23.037716    17.231704    15.023195    15.540989 
   13.387751    17.230587     15.02129    15.545113 
   14.180921    17.230006    15.017116    15.547724 
   42.271965    17.229992    15.010652    15.548682 
   65.277906    17.231668    15.003842    15.548297 
   -3.886207    17.235956    14.996131    15.548707 
   63.275019    17.240089    14.986099    15.548825 
   67.528794    17.246752    14.975133     15.55016 
   4.1037924    17.256117    14.962167     15.55219 
   18.895682    17.265646     14.94753    15.554054 
  -2.5348904    17.275931    14.935429    15.557362 
    28.13002    17.286114    14.923476    15.560377 
   18.371349    17.297422    14.908951    15.560235 
  -6.2867596    17.309466    14.894273    15.560192 
  -1.7738151    17.321257    14.880072    15.559807 
  -47.328769    17.332978    14.866493    15.558986 
   43.393744    17.342806    14.850007    15.558614 
  -45.120627     17.35437    14.833471    15.558139 
   37.179115    17.364128    14.816659    15.555072 
  -29.462906    17.375374    14.801179     15.55194 
  -32.298221    17.385441    14.787622    15.548761 
  -15.366571    17.394217    14.773507    15.545233 
   57.847696    17.402377    14.762235    15.543956 
   44.160048    17.412852    14.752277    15.541037 
  -36.142282    17.425093    14.741681    15.540723 
  -11.692745    17.435888    14.729015    15.541806 
  -31.668685    17.446216    14.716107    15.541523 
  -3.4969806    17.455277    14.701821    15.541708 
   23.563376    17.464198    14.689193    15.542481 
  -20.767629    17.474061    14.677022    15.541167 
  -12.529398    17.483094    14.664805    15.540309 
  -29.442305    17.491626    14.653656    15.537643 
  -5.4469352     17.49898    14.643933    15.534653 
   75.762306    17.506116    14.634613    15.531361 
   41.511041    17.516283    14.626777    15.526238 
  -84.880001     17.52811    14.618197    15.521412 
   21.071343    17.536541    14.609724     15.51635 
  -21.889254    17.545816    14.602041    15.509568 
  -44.417352    17.554215    14.594989    15.501919 
  -32.473614    17.560838    14.587548    15.496139 
   20.722248    17.566161    14.579055    15.489219 
  -3.3689945    17.572313    14.572928    15.481641 
  0.33256736    17.578331      14.5672    15.474271 
     21.9748    17.584362    14.560343    15.465698 
   47.921637    17.591272    14.555782    15.455073 
     33.1089    17.600098    14.552133     15.44697 
  -11.347786     17.61025    14.549159    15.438928 
  -12.807617    17.619947    14.546062    15.433064 
  -26.017153    17.629132    14.543111    15.430282 
  -19.506988    17.637276    14.539816    15.426636 
   48.424303     17.64464    14.537015    15.422219 
   44.374523    17.653941    14.534417    15.418852 
    38.60912    17.665017    14.532116    15.417734 
   13.358598    17.677637     14.53101    15.416514 
   35.513614    17.690791    14.531426    15.416012 
  -1.1852916    17.705367     14.53272    15.415144 
  -4.0290103    17.719894    14.533982    15.414957 
   -18.25622    17.734261    14.535345    15.412821 
  -39.743622    17.747897    14.537453      15.4105 
   5.0792224    17.759944    14.538067      15.4051 
  -26.427895    17.772193    14.539843    15.398109 
  -13.003035    17.783386    14.542445    15.391926 
  -45.498064    17.794059    14.546075     15.38595 
  -29.988286    17.802911    14.548705    15.380127 
  -49.779916    17.810564    14.550547    15.375698 
 -0.16574007    17.816226    14.553701    15.371618 
  -32.702232    17.821881    14.557031    15.367107 
   -3.700148    17.826228    14.561945    15.363519 
   48.605278    17.830427    14.566026     15.35794 
  -21.988555    17.836571    14.571155    15.350479 
  -18.463292    17.841835    14.576708    15.342995 
   51.892806     17.84636    14.584548     15.33549 
   46.845024    17.852961    14.592456    15.328116 
  -25.361884    17.861436    14.599695    15.321353 
   4.3980028    17.868896    14.609338    15.315101 
  -12.510256    17.876532    14.618666    15.308699 
  -15.888914    17.883668    14.627435    15.302085 
  -71.028329    17.890168    14.638485    15.296574 
  -26.071712    17.893827    14.652239    15.289141 
    36.69279    17.896444    14.668479    15.282193 
   30.071569    17.900527    14.684639    15.272851 
   62.687445    17.905814     14.69934    15.262285 
  -25.972235    17.913609      14.7134    15.253367 
  0.26392894    17.920364     14.72648     15.24663 
  -44.474531     17.92713    14.737692    15.240111 
     29.8121    17.932117    14.748743    15.234027 
   22.866275    17.938297    14.758946    15.227705 
  -19.891236    17.945391    14.768073     15.22118 
  -5.5390168    17.951689    14.778769     15.21472 
   37.518365    17.957766    14.787397    15.207727 
  -16.039119    17.965344     14.79668     15.20257 
  -19.280017     17.97228    14.808209    15.197866 
  -5.2291349    17.978445    14.820089    15.194047 
     23.0084    17.984401    14.832248    15.187748 
  0.61443126    17.991277    14.846682    15.180828 
    12.83208    17.998177    14.860128    15.174423 
  -24.253234    18.005591    14.872662    15.170678 
  -47.070618    18.012035    14.884651    15.170188 
0.0036493678    18.016596    14.895419    15.170952 
   6.1179235    18.021157    14.907108    15.171391 
  -33.902446    18.025963    14.919933    15.170737 
  -42.571485    18.029413    14.930466    15.170053 
   51.063337     18.03116    14.941486    15.170245 
   36.439608    18.034949    14.954556    15.170044 
  -58.723607    18.040196    14.966624    15.169005 
      42.081    18.043094    14.978894     15.16919 
   9.2772866    18.047675    14.989925    15.170596 
  -82.732732    18.052628    15.000567    15.170272 
   56.285954    18.054271     15.01102    15.168465 
  -12.417981    18.058165    15.022733    15.167887 
  -4.5037549    18.061563    15.032933    15.167871 
  -27.822952    18.064781    15.043067    15.167236 
  -33.013442    18.066885    15.051468    15.167264 
  -43.650238     18.06767    15.059872    15.168141 
   36.416352    18.066708    15.069736    15.169752 
  -13.032875    18.067203    15.078993    15.169554 
  -72.716647    18.067176    15.086884    15.168116 
  -5.0157905    18.064241    15.096806    15.166304 
  -20.052062    18.061105    15.105363    15.162746 
   8.6518735    18.057167    15.113221    15.159505 
  -23.993328    18.053576    15.120901    15.158844 
   25.949496    18.049024    15.131322    15.157136 
   1.2880431    18.045511    15.140985    15.155769 
  -3.6131821    18.042049    15.150011    15.155376 
   16.608038    18.038442    15.156976    15.155314 
  -32.689588      18.0355     15.16116    15.154485 
  -18.809613     18.03125    15.165008    15.153853 
  -18.341894    18.026248    15.170172    15.154466 
   12.942861    18.020512    15.174927    15.153178 
   5.4510254    18.015294    15.179299    15.151177 
   29.077439    18.010294    15.183298    15.148913 
  -39.017387    18.006457    15.187035    15.149238 
    23.05948    18.001059    15.190472    15.149395 
  -34.121427    17.996584    15.194584    15.150307 
  -13.413535    17.990744    15.198467    15.152293 
  -21.181609    17.984367    15.202711    15.154095 
  -63.277534    17.977143    15.206143    15.154892 
  -17.933431    17.967388    15.209195    15.154176 
   22.391406    17.956915    15.209745    15.154727 
   6.2269669    17.947338    15.209961     15.15371 
  -15.547736    17.938011    15.210122      15.1522 
  -8.0648153    17.928061    15.211686    15.152166 
   36.363098    17.917789    15.213348    15.151647 
  -61.392852    17.908971    15.216208    15.152366 
  -19.959021    17.897698    15.219687    15.154457 
   5.3181393    17.885626    15.222247    15.156292 
   29.091558    17.873767    15.224435     15.15816 
  -6.8442783    17.863072    15.224454    15.157913 
  0.76766128    17.852103    15.222654    15.157182 
   28.162711    17.841164    15.220277    15.155291 
   14.099164    17.831352    15.220683    15.155274 
   54.832038    17.822104    15.221004    15.155006 
  -9.1042163     17.81505    15.223089     15.15552 
   21.975521    17.807631    15.225394    15.156287 
  -24.244977    17.801091    15.229558     15.15617 
   13.082019    17.793581    15.232516    15.155644 
   19.969242    17.786595     15.23665    15.154875 
   29.220256    17.780408    15.240539    15.153969 
   11.642134    17.775389    15.244976    15.151423 
   16.011972    17.770836    15.249187     15.14819 
  -60.874866    17.766923     15.25316    15.145705 
   11.538873    17.760576    15.256157    15.145033 
  -3.9214689     17.75469    15.260356    15.144034 
  -37.327741    17.748647    15.263516     15.14378 
   68.687556    17.741111    15.268061    15.142018 
    -37.3871    17.736322    15.274213    15.140696 
   16.853884    17.730038    15.280529    15.139116 
   23.531754    17.724428    15.286675    15.138496 
  -18.729636     17.71976    15.292333    15.136685 
  -6.8028875    17.714342     15.29656    15.135924 
   5.1622711    17.708652    15.302083    15.135627 
   28.484483    17.703169    15.305585    15.134395 
  -12.883121    17.698825     15.31006    15.131073 
  0.50170923    17.693966    15.313685     15.12643 
   4.3465498    17.689126    15.315864    15.119182 
   13.567762    17.684461    15.317658    15.111339 
   72.506836    17.680338    15.317454     15.10675 
  -8.8475975    17.679116     15.31788    15.101432 
   12.796123     17.67754    15.317006    15.095321 
  0.53919366    17.676475    15.314766    15.090482 
  -18.632329    17.675432    15.313077    15.087043 
   40.673497    17.673644    15.312811    15.084563 
   108.29858    17.673483    15.310171    15.083386 
   18.313021    17.677654    15.306104    15.082359 
  -39.156825    17.682557    15.302259    15.083411 
  -43.351429    17.685894     15.29699    15.086452 
   25.424328    17.687497     15.29069     15.09058 
   10.552019    17.690116    15.285409    15.095631 
  -43.868925    17.693158    15.279721    15.100611 
   2.0164822    17.694446    15.273566    15.104605 
  -35.731836    17.695813    15.269126    15.109921 
   7.7170087    17.695752    15.263056     15.11638 
  -2.4355587    17.695999    15.259909    15.120878 
   3.1939791    17.696149    15.255648    15.124274 
   31.220522    17.696427    15.250892    15.127264 
    -13.1091    17.697953    15.243176    15.131413 
  -25.471002    17.698955    15.234917    15.134563 
  -55.240774    17.698938    15.225352    15.141007 
  -27.038457    17.696712    15.215194    15.145255 
   11.810064    17.693404     15.20486    15.149431 
  -54.295063    17.690568    15.193081    15.153953 
   26.205578    17.685561    15.183317    15.158447 
  -33.141916    17.681602    15.174919    15.165214 
  -32.653572    17.676317     15.16866    15.174221 
  -46.975407    17.669726     15.16237    15.182632 
  -20.816247    17.661256    15.153981    15.191824 
   8.8747861    17.651954    15.147421    15.202366 
  -35.287021    17.643006     15.14004    15.211214 
   45.103087    17.632647    15.131347    15.220637 
   2.1974374    17.624092    15.121775    15.231064 
   16.585855    17.615625     15.11372    15.242191 
   23.003633    17.607821    15.103774    15.252948 
    38.57247    17.600938    15.095121    15.264486 
   15.370245    17.595597    15.085067    15.275141 
  -16.092736    17.590871    15.075614     15.28577 
  -11.516445    17.585502    15.067286    15.297088 
   -30.04293    17.579672    15.059359    15.307139 
   3.1405254     17.57264    15.050982    15.317698 
  -32.609663    17.565733    15.044272    15.327845 
   41.832475    17.557523    15.037189    15.338217 
  -10.867042    17.550985    15.029286    15.349056 
  -4.7111868    17.544013    15.021642    15.358036 
   45.937998    17.536853    15.013543    15.366389 
   25.039548     17.53153     15.00586    15.374452 
   15.336066    17.527209     14.99979    15.383734 
   2.1260283    17.523501    14.995222    15.393227 
   29.489913    17.519878    14.991099    15.401728 
   71.981016    17.517434    14.986603    15.412777 
    37.22388     17.51787    14.981968     15.42418 
  -24.212954    17.519795    14.978071    15.435075 
   -1.352686    17.520752     14.97527    15.444866 
   79.446319    17.521654    14.973021    15.453718 
   1.8264567    17.525734    14.971474    15.461504 
   34.175985    17.529887    14.972127    15.470172 
   27.083752    17.535407     14.97146    15.477004 
   27.511861    17.542011    14.970589    15.483262 
  -55.499896    17.549715    14.969492    15.488279 
   60.039947    17.555199    14.969029    15.492308 
  -18.909518    17.563085    14.968428    15.494895 
   19.415707    17.570214    14.967175    15.497524 
  -70.961144     17.57812     14.96507    15.499104 
  -18.085715    17.583187    14.962843     15.49909 
  -33.626789    17.587531    14.958832    15.497991 
   41.672758     17.59053    14.955189     15.49753 
   10.990921    17.595196    14.949524    15.498116 
   29.950219    17.600302    14.943168    15.498863 
  -19.685189    17.606605    14.938917    15.501733 
  -12.826131    17.612121    14.936096    15.506145 
  -26.437485    17.617124    14.935158    15.512278 
    35.21197     17.62107    14.934074    15.518782 
  -41.536782    17.626424    14.935681    15.527209 
   28.614453    17.630117    14.936892    15.534869 
   31.355371    17.634954    14.938656    15.541352 
   -42.46609    17.641045    14.940762    15.549282 
 -0.75782366    17.645438    14.943252     15.55601 
  -25.059601      17.6498    14.945568    15.564695 
  -34.689335     17.65316    14.947398    15.573212 
  -39.552912    17.655133    14.950413    15.582368 
   18.022219    17.655523    14.952427    15.592056 
   10.998357    17.656634    14.954807    15.602408 
  -16.625373    17.658185    14.956667     15.61359 
  -13.730731    17.659071    14.958957    15.624298 
  -9.0275498    17.659408    14.961637    15.635931 
    11.87313    17.659384    14.962475    15.645648 
  -29.596499    17.659835    14.961303    15.654829 
   10.410357    17.659102    14.958626      15.6635 
  -55.448077    17.658785    14.956061    15.672821 
  -23.464341     17.65625    14.956046     15.68281 
  -8.6849052    17.652777    14.956301    15.691773 
  -4.1393276    17.648956    14.957323    15.701122 
    31.01211     17.64497    14.957953    15.710285 
   5.2726107    17.642225    14.957802    15.718229 
    50.29285     17.63969    14.958962    15.727392 
  -12.190338    17.639167    14.961469    15.734712 
  -41.744008    17.638156     14.96536    15.743177 
   -56.61678    17.635476    14.970705     15.75017 
    40.18181     17.63053    14.976881    15.755209 
   35.614766    17.627193    14.980832    15.760595 
  -44.735541    17.625279    14.984348    15.763494 
  -33.717863    17.621577    14.987768    15.764401 
  -60.427889    17.616525     14.99134    15.764939 
   8.5753826    17.609057    14.995195    15.765881 
   -2.823246    17.601931    14.998041    15.768613 
    -8.37732    17.594693    15.001456    15.769726 
   40.921674    17.587119    15.003988    15.772721 
   36.386438    17.581183    15.007526    15.773657 
  -4.0293422    17.576701    15.010319    15.774682 
  -41.666896    17.572059    15.012885    15.774853 
  -47.242588     17.56575    15.015563    15.776255 
   7.9821727    17.557551    15.018487    15.777325 
   14.448764    17.549672    15.021254    15.778414 
   9.8221332     17.54237    15.023468    15.777256 
   69.850015    17.535462    15.024819    15.775092 
   81.104165    17.531347    15.025681    15.770258 
   12.484797    17.530477    15.028188    15.766015 
   6.2081589    17.530105    15.031927    15.763341 
   31.055476    17.529983     15.03632    15.759182 
   -15.50383    17.531102    15.040129    15.752992 
   8.5147039    17.531602    15.043422    15.745819 
   -2.182278    17.532441    15.044967    15.738303 
   56.075484    17.533194    15.046828    15.731581 
  -4.7892536     17.53619    15.048784    15.723333 
  -7.9483007    17.538994    15.051088     15.71462 
   12.502867     17.54148    15.053506    15.706556 
   32.991504    17.544466    15.053356    15.700292 
   70.522701    17.548772     15.05332    15.695817 
  -46.496796    17.555899    15.051962    15.691068 
   -66.75662    17.561166    15.050921    15.687486 
  -13.707434    17.563762    15.048781    15.684536 
  0.97525275    17.565811    15.046483    15.681779 
  -7.9081465    17.567898    15.045375    15.676591 
   39.977202    17.569669    15.044097     15.67145 
   2.5862201    17.573039    15.041364    15.664773 
  -62.190229    17.576513    15.040609    15.655094 
   48.667245    17.577499    15.039131    15.647516 
   38.264593    17.580432    15.037744    15.643299 
  -42.436502    17.584895    15.036815    15.638961 
  -6.1095696    17.587661    15.036392     15.63241 
   -3.403241    17.590182    15.034924    15.625635 
  -18.252476    17.592568    15.032277    15.621992 
   14.785918    17.594223    15.031927    15.616842 
  -2.5708507    17.596469    15.031593     15.61249 
   20.588224    17.598613    15.029826    15.608835 
    14.25404    17.601581    15.031169    15.604382 
  -14.287124    17.605118    15.030847    15.600603 
  -33.455131    17.608084    15.032004    15.597712 
  -5.3721921    17.609712    15.031656    15.596019 
   13.032641    17.611125    15.031739    15.592853 
  -84.809539    17.613059    15.032086    15.590702 
   47.989274    17.611601     15.03206    15.587597 
  -18.237651    17.612062    15.030261    15.585442 
   17.941949    17.611794    15.028216    15.581661 
   13.817208    17.612244    15.024638    15.580997 
   -15.27216    17.613246    15.023161    15.581277 
   2.9612631    17.613637    15.022746    15.582782 
   30.585115    17.614147    15.024578    15.583863 
   7.2852839     17.61588    15.025317    15.585085 
  -59.398728    17.617905    15.026961      15.5855 
  -21.673094    17.617554    15.027535    15.585943 
   81.050509    17.616336    15.028397    15.585786 
   23.248784    17.618359    15.029047    15.588078 
   20.032432    17.621313    15.028005    15.588898 
  -19.872514    17.625068    15.025397    15.588753 
  -8.3236165    17.628028    15.021964    15.589326 
  -1.1513573    17.630656    15.018106    15.589569 
  -2.4214392    17.633237    15.016184    15.589523 
    15.15081    17.635721    15.012961    15.589324 
   4.4260575    17.638811    15.010007    15.588937 
  -2.6795794    17.642079    15.005308    15.588534 
   24.585432    17.645239    14.999772    15.586977 
  -8.1404198    17.649382    14.992968    15.586022 
  -12.290472      17.6532    14.986806    15.587051 
  -6.4539994    17.656527    14.981916    15.588363 
  -7.7063994    17.659595    14.976572      15.5912 
  -15.849983    17.662355    14.973154     15.59266 
   30.200605    17.664481    14.969567    15.596636 
  -51.345112    17.667815    14.965168    15.598285 
   12.317287    17.669095    14.962445    15.598499 
 -0.54174162    17.670868    14.958493    15.598562 
   10.855285    17.672619     14.95371     15.60001 
   7.6446407    17.674804    14.949046    15.602552 
  -5.3266183    17.677296    14.945398    15.602971 
   5.9326139    17.679574    14.940551    15.603605 
   34.761376    17.682089    14.934477    15.602509 
   38.655914    17.685995    14.928718    15.600799 
   11.928361    17.691447    14.923839    15.600861 
   3.4825914    17.697376    14.918703    15.602518 
  -11.597502    17.703445    14.914309    15.603784 
    33.15404     17.70905    14.908599    15.604392 
   29.700843     17.71598    14.905584    15.604446 
  -9.9164601    17.724099    14.902582    15.605065 
   16.260106    17.731821    14.898769     15.60562 
   75.245448    17.740194    14.893863    15.605812 
   27.959265    17.751576    14.891944    15.607516 
   8.3912286    17.764077    14.889705    15.610103 
   28.086622    17.776914    14.887346    15.612819 
  -5.6766508    17.790874    14.886651    15.614671 
  -14.874345    17.804606    14.886621    15.615782 
  -16.113417    17.817744    14.884851    15.616202 
  -32.049215    17.830238     14.88463    15.616333 
   7.8358949    17.841449    14.884841    15.618384 
  -8.0135353    17.852974    14.884816    15.620359 
  -61.524581    17.864178    14.883132     15.62323 
  -28.805576    17.872921     14.88145    15.628068 
  -31.562686    17.880512    14.879259    15.631819 
   9.3855908    17.886841    14.877565     15.63694 
   3.1962146    17.893545    14.874297    15.644384 
  -40.431815    17.900377    14.870818    15.650325 
   3.3779199    17.905591    14.865922    15.656151 
   5.3451534    17.910941    14.859083    15.660925 
   9.0293906    17.916504    14.850884    15.663433 
   6.4979037    17.922429    14.842552    15.666871 
  -32.746224    17.928613    14.834505     15.67138 
  -35.795614    17.933488    14.825464    15.676646 
  -24.574743    17.936931     14.81647    15.681846 
  -66.101982    17.939391     14.80915    15.686641 
   26.368489    17.939207    14.802117     15.69138 
  -21.094152    17.940077    14.795332    15.697135 
  -4.1815787    17.940104    14.790528    15.704106 
   60.563379    17.939964    14.785421    15.711574 
   2.0629834    17.942246    14.778303    15.719641 
   46.779939     17.94461    14.770307    15.729329 
   1.8175319    17.948846    14.765508    15.739501 
   -24.36771    17.953154    14.760516    15.748264 
  -35.329535    17.956488    14.755053    15.755578 
   15.805824    17.958409    14.749836    15.764085 
   21.848414    17.960962    14.745984    15.770548 
  -38.709514    17.964388     14.74146    15.776489 
  -1.1805128    17.966267    14.735672    15.783147 
  -2.3967762    17.968098    14.731044    15.788873 
   26.646006    17.969833    14.727169    15.794302 
   18.021092    17.972634    14.722616    15.800401 
  -41.623059    17.976156    14.718324    15.803724 
  -40.634061    17.978013    14.713367    15.809183 
   7.8924227    17.978245    14.710124    15.813836 
   28.840285    17.978792     14.70582    15.819389 
   56.856884    17.980493    14.702727    15.825652 
   -45.24742    17.984468    14.701394    15.832225 
   60.451853    17.986634    14.699335    15.838959 
  -30.709111    17.991217     14.69865    15.845201 
 -0.38872886    17.994572     14.69793    15.850189 
   15.632793    17.997912    14.695783    15.853736 
   29.492853    18.001877    14.694027    15.858206 
  -2.0936122    18.007021    14.691802    15.864509 
  -19.636371    18.012082    14.690908    15.870459 
   18.361957    18.016357    14.691003    15.875442 
  -6.2226015    18.021367    14.692371    15.879791 
  -42.108856    18.026128    14.691484    15.884037 
  -80.680589    18.029205    14.691162    15.888713 
  -13.061021    18.029054    14.690675    15.893555 
   14.287722    18.028381    14.691134    15.899469 
   20.474116    18.028279    14.690671    15.905424 
  -16.861983    18.028997    14.689986    15.910412 
  -20.081411     18.02904    14.688566    15.915491 
  -50.115379    18.028279    14.686322    15.919735 
  -68.823732    18.025514    14.685234    15.926181 
   24.419155    18.019996    14.683961    15.931709 
  -45.259228    18.015455    14.681085    15.938675 
   5.1740045    18.009104    14.677858    15.944463 
   1.9898581    18.002959    14.674125    15.951514 
   32.294331    17.996894    14.668458    15.957701 
  -39.457908    17.992121    14.661939    15.964008 
  -19.689736    17.985769    14.657426    15.970589 
  -2.1097749     17.97863    14.653125    15.978526 
  -19.865617    17.971407    14.646762    15.986056 
   20.700452    17.963389    14.639454    15.992181 
   67.957724    17.956199    14.631839    15.997901 
   17.271065    17.951727    14.623734    16.004443 
   5.8321605    17.947946    14.614787    16.010065 
   30.274869    17.944398    14.602855    16.013959 
   7.1657003    17.942062    14.591661    16.017044 
  -28.699258    17.940012    14.582363    16.017488 
  -58.868798    17.936814    14.572255    16.016807 
  -5.4347523    17.931261    14.561262    16.017169 
   13.030977    17.925491    14.550624    16.017426 
   16.120335    17.920242    14.537518     16.01623 
   30.785526    17.915638    14.522945    16.014142 
  -40.241948    17.912265    14.508083    16.014293 
  -58.725859    17.907283     14.49457    16.014027 
  -1.6644567    17.899951    14.480117    16.012809 
   20.948635    17.892553    14.465521    16.011902 
   28.864749    17.885993    14.453433     16.01025 
   20.869914    17.880588    14.440662    16.010498 
   16.966121    17.876017    14.427911    16.008053 
  -43.564103    17.872125    14.415959     16.00556 
  -10.150625    17.866491    14.403998     16.00269 
    50.75347     17.86045    14.392626    16.000781 
   13.609245     17.85644    14.380201    15.997817 
-0.021371897    17.852974    14.368237     15.99379 
   5.8127707    17.849507    14.355132    15.991118 
   5.1201748    17.846272    14.344561    15.989755 
    18.62789    17.843243     14.33344    15.987644 
   64.383316    17.840958    14.324252    15.984848 
  -36.242257    17.841249    14.314937    15.981018 
  -3.6458219     17.84009    14.307354    15.978457 
  -40.451461    17.838785    14.299839    15.975183 
   13.558558    17.835863    14.291486    15.972894 
   22.246222    17.833482    14.283956    15.970924 
  -16.162166    17.831992    14.278361    15.971056 
    32.28972    17.829855     14.27242    15.971435 
   12.243763    17.829009    14.265571    15.970399 
   25.829392    17.828653    14.258635    15.968966 
   14.637648    17.829331    14.252926    15.965936 
   9.9741904    17.830594    14.247716    15.962723 
   8.3729544    17.832256    14.239926    15.959562 
  -20.703738    17.834253    14.230838    15.955622 
     21.0864    17.835421    14.223413      15.9489 
  -47.792146    17.837434    14.215119    15.943024 
  -45.515816    17.837534    14.206156    15.935182 
   75.015129    17.835814    14.198217    15.928297 
   50.496809    17.837094    14.191496    15.920785 
   14.622374    17.840395    14.183121    15.912857 
  -33.406696     17.84428    14.176873    15.908226 
  -32.781651    17.846829    14.168453    15.902623 
  -6.2301856    17.848067    14.159155    15.894844 
   3.8725745    17.849055    14.151299    15.887911 
   43.802016    17.850199    14.144222    15.880127 
  -32.583971    17.853094     14.13604    15.873709 
    2.746664    17.854686    14.128346    15.869932 
   57.984961    17.856388    14.121313    15.868174 
    2.050992    17.860409    14.114446    15.867227 
   51.655546    17.864513    14.109286    15.866259 
  -49.852875    17.870683     14.10291    15.866144 
   4.5354579    17.874858    14.099775    15.865692 
    30.93763    17.879215      14.0962    15.865135 
  -17.954327    17.884809     14.09294    15.865905 
  -29.750148    17.889686    14.091328    15.867146 
  -17.485944    17.893372    14.090447    15.865972 
  -8.8386282    17.896359    14.089485    15.865346 
 -0.18586877    17.898992    14.088627    15.867256 
  -22.227472    17.901618      14.0869    15.870139 
   2.5836691    17.903355    14.085128    15.872583 
  -25.528159    17.905195    14.080953    15.873868 
  -14.390801    17.906014    14.078952    15.876531 
  -29.672047    17.906257    14.076788    15.877989 
  -9.1865287    17.905314    14.075124    15.877412 
  -76.511164    17.904003    14.073493    15.879595 
   14.137342    17.899631    14.072761    15.880229 
  -23.920799    17.895825    14.073249     15.88079 
  -22.538728    17.891062    14.073958     15.88011 
   25.596461    17.885398    14.072738    15.877365 
   -28.30535    17.880758    14.069061    15.873318 
 -0.53743548    17.874985    14.065518    15.870384 
  -8.9096327    17.869191    14.060661    15.866683 
   15.246176     17.86304    14.057888    15.860864 
   56.175083    17.857499    14.055955    15.853499 
   30.943922    17.854206    14.051517    15.844886 
  -5.6180061     17.85215    14.048666    15.836958 
  -14.658497    17.849869    14.046855     15.82863 
  -18.003889    17.847002    14.045538    15.820301 
   -38.42335    17.843415    14.045091    15.812247 
   14.811947    17.838291    14.044089    15.804518 
  -24.782926    17.833759    14.043367    15.799139 
   13.941547    17.828236     14.04403    15.794274 
  -19.790395    17.823271    14.046717    15.791884 
  -16.183558    17.817514    14.048509    15.788672 
  -32.062412     17.81111    14.050833    15.785267 
   36.277452    17.803423    14.050196    15.779665 
  -49.588429    17.797187    14.050521     15.77367 
   -30.04093    17.788968    14.051592    15.767039 
  -26.291524    17.779547    14.053793    15.759864 
 -0.73142237    17.769075    14.054245    15.751396 
   27.575603    17.758573    14.054689    15.743477 
  -5.2411595    17.749174    14.055977     15.73478 
   16.619605    17.739566    14.057291    15.725157 
   21.383616    17.730622    14.059421    15.716267 
  -30.723639    17.722534    14.064632    15.706098 
   32.425517    17.713217    14.070683    15.696388 
  -45.747349    17.705197    14.075645    15.688056 
    37.49774    17.695347    14.081319    15.679775 
   43.227259    17.686997    14.087669      15.6728 
   78.664788    17.680375    14.095111    15.665749 
  -1.3524285    17.676901    14.104625    15.655719 
   27.790255    17.673372    14.113278    15.645782 
   -4.900687    17.670956    14.123979    15.634074 
   -29.42157    17.668343    14.134427    15.621276 
 0.094231223    17.664553    14.144184    15.608329 
  -21.373437    17.660767    14.153564    15.596356 
   13.944799    17.656126    14.162811    15.585307 
   54.194869    17.652042    14.171499    15.573995 
 -0.70189451    17.650127      14.1794    15.565388 
  -33.060354    17.648183     14.18864    15.558594 
   26.458862    17.644918     14.19841    15.554618 
   15.417487     17.64271    14.208664     15.54869 
   29.036821    17.641119    14.219207    15.542248 
   40.007968     17.64069    14.231463    15.536464 
   -14.11299    17.641861    14.241024    15.529766 
   35.977428    17.642467    14.249021    15.522647 
  -16.605173    17.644513    14.255744    15.517091 
  -6.8451054    17.645894     14.26223    15.513467 
  -49.996764    17.647001    14.267617    15.510062 
   48.801862    17.646109    14.274014    15.506279 
   30.206926    17.647169    14.281685    15.500948 
   9.1170154    17.649437    14.289242    15.493866 
  -17.816198    17.652069     14.29754    15.485067 
   6.5062912    17.653989    14.303764    15.476364 
  -36.440322     17.65617     14.31202    15.466309 
  -9.9247657    17.656892    14.319818    15.455027 
   7.3263928    17.657218    14.326597    15.445453 
  -25.071912    17.657837    14.332895    15.434782 
   26.061889    17.657453    14.337131    15.424854 
   53.178859    17.658111    14.341377     15.41681 
   13.941503    17.660896    14.345979    15.408427 
  -56.308202    17.664239     14.34994    15.402662 
  -44.731696     17.66533    14.353035    15.397536 
   42.416602    17.664632    14.354813    15.392929 
  -24.878447     17.66563     14.35434     15.38645 
  -3.1857698    17.665633    14.354815    15.378771 
  -6.3905976    17.665509    14.353234    15.371914 
   9.5092568    17.665129    14.350437    15.362874 
  -29.328375    17.665129    14.347923    15.355218 
   39.837311    17.663956    14.343871    15.348161 
  -60.731881    17.664377    14.342077    15.341292 
   34.962838    17.662368    14.340089    15.334012 
    19.61913    17.661758    14.338072    15.325115 
   15.185238    17.661933    14.336732    15.316031 
    47.14369    17.662715    14.335328    15.306342 
  -14.816242    17.665383    14.336019    15.297916 
  -26.509191    17.667458    14.337424    15.287257 
  -22.814678    17.668473    14.340387    15.277655 
  -20.928584    17.668576    14.343117    15.265799 
  -47.376751    17.667841    14.345304    15.254116 
  -78.182825    17.665211    14.348374    15.243202 
   -38.14593    17.659454    14.347824    15.230252 
   48.896651    17.652171    14.347886    15.217021 
   38.704271    17.646843    14.348697    15.204548 
    -22.7583    17.643064    14.350564       15.192 
      26.057    17.638375    14.351422    15.179667 
    20.40964    17.634728    14.353336    15.166679 
  -6.2640265    17.631897    14.357204    15.154091 
   25.401437    17.628816     14.36025    15.141589 
  -7.4957247    17.626751    14.362022    15.129507 
  -6.0619777    17.624386    14.362173     15.11888 
   13.430683    17.621778    14.359787    15.110209 
   27.459466    17.619708    14.360889    15.100896 
  -10.228443    17.618736    14.361656    15.092342 
  -12.280679    17.617355    14.363042     15.08245 
  -16.733367    17.615483    14.364498    15.073386 
    6.304288    17.612941    14.366336    15.066579 
   26.551094    17.610652    14.367429    15.058391 
   41.958393    17.609424    14.368404     15.05197 
   48.951722    17.609875    14.369038    15.044295 
   7.7571017    17.612284    14.367744    15.033639 
   82.295105    17.615003    14.368374    15.021677 
 -0.26814134    17.621015    14.368252    15.007351 
  -55.200997    17.627015    14.369192     14.99241 
  -4.2110804    17.630807    14.372493    14.977917 
  -3.9352312    17.634431    14.374748    14.963083 
   91.572478    17.637898    14.376146    14.949292 
  -2.3852004    17.645027    14.376923    14.938537 
  -30.638371    17.652061    14.376778    14.927488 
  -18.550426    17.657869    14.375105    14.916896 
   8.8971812    17.662936    14.373911    14.906371 
   3.1776146    17.668358    14.372167     14.89611 
  -84.172103    17.673908    14.371091    14.886008 
   0.6490268     17.67609    14.369115     14.87676 
  -12.626927    17.678299    14.367778     14.87046 
    51.22703    17.680002    14.365799    14.863408 
   5.8430273    17.683754    14.365596    14.855467 
  -16.633537    17.687741    14.365182    14.847706 
   22.197431    17.691062     14.36442    14.839144 
   27.853456     17.69527    14.363814    14.831002 
  -34.099216    17.700593    14.362579    14.821861 
  -11.199222    17.704552    14.359315    14.813869 
   20.729001    17.708063    14.357004    14.807318 
   37.197172    17.712403    14.357401     14.80071 
   -19.48925    17.718231    14.357303    14.793573 
   45.752646     17.72328     14.35594    14.784233 
   15.697663    17.730158    14.354939    14.774053 
  -7.0118588    17.737665    14.353677    14.763258 
   13.606318    17.744891    14.352436    14.751172 
  -27.174087    17.752661    14.353478    14.740641 
   61.156277    17.759344    14.355072    14.730874 
  -4.1959191    17.768474     14.35594    14.721811 
   46.276826    17.777435    14.356503    14.712461 
  -40.929469    17.788248    14.356907    14.701937 
  -14.552346    17.797424    14.357649    14.691643 
  -11.168824    17.806017    14.356373    14.680194 
   7.7085553    17.814164    14.355526    14.670288 
   10.280527    17.822619    14.353391    14.660884 
  -3.9505508    17.831485    14.349864    14.651412 
  -35.638429    17.840194    14.346532    14.641873 
   22.831647    17.847476    14.342132    14.632724 
   21.360884    17.855672    14.338593    14.623157 
  -56.100341    17.864723    14.334201    14.614358 
  -36.488506    17.871529      14.3291    14.604815 
  -41.273614    17.876876    14.324031    14.594723 
  -22.965106    17.880572    14.319298    14.584138 
  -14.016226    17.883349    14.315256    14.573364 
  -6.3299542    17.885566    14.309978    14.563709 
   6.0852325     17.88753    14.306812    14.552137 
    -52.8882    17.889737     14.30405    14.539424 
   10.974552    17.889828    14.301215    14.525248 
   58.530526    17.890358    14.299582    14.510406 
  -50.156739     17.89323    14.297661     14.49347 
  -11.203831    17.894095      14.2968    14.477035 
  -8.0546726    17.894512    14.295741    14.461495 
  -36.526365    17.894607    14.296461     14.44669 
   -29.85194    17.893241    14.299721    14.433893 
  -11.270915    17.890681    14.302599    14.420587 
  -6.1851648     17.88767    14.303774    14.407496 
  -55.014811    17.884412    14.305494    14.394754 
  -47.214918    17.878953    14.306518    14.380286 
   -79.07075    17.871605     14.30804    14.366906 
   4.6408147    17.861095    14.312054    14.355482 
  -6.6678673     17.85077    14.316114    14.343914 
   6.7464991    17.840178    14.322092    14.331305 
   5.6176855    17.829857    14.326806    14.320687 
  -25.068324     17.81976    14.331799    14.311918 
   43.613789     17.80866    14.337246    14.303147 
   22.799285    17.799305    14.341943    14.293573 
   27.126412    17.790862     14.34725    14.282611 
  -23.550242    17.783504    14.351135    14.271379 
   31.351279    17.775204    14.354097    14.258919 
  -6.7642511    17.768158    14.358228    14.247741 
  -7.3882943    17.760841    14.363322    14.235738 
   39.296942    17.753229    14.367037     14.22345 
  -22.894177    17.747188    14.370914    14.212749 
  -7.5692611    17.740232    14.374403     14.19961 
   26.980483    17.732974    14.377233     14.18513 
  -14.817495    17.726794     14.38058    14.170112 
   1.0181894    17.720022    14.382857    14.157312 
   21.981854     17.71329    14.387253    14.142521 
   55.821055    17.707438    14.390598    14.127302 
  -14.319991    17.703818    14.390954     14.11479 
  -1.1451905    17.699626    14.390211    14.103317 
    5.140192    17.695388    14.390023    14.090921 
  -13.527126    17.691356    14.390132    14.079319 
  -13.113834    17.686782    14.391142    14.066318 
  -6.7354443    17.681684    14.390845    14.054745 
  -46.306112    17.676316    14.390759    14.044129 
   52.899171    17.669097    14.389904    14.034092 
  -5.0598386    17.663993     14.39192    14.023151 
   9.4442474    17.658687    14.395653    14.012692 
   16.051268    17.653758    14.400254     14.00285 
   29.857708    17.649472    14.404517    13.993253 
  -13.655584     17.64638     14.40901    13.983484 
   -50.57966    17.642742     14.41308    13.974832 
   20.344602     17.63708     14.41506    13.967172 
  -2.4015833    17.632233    14.415609    13.958677 
   10.494503    17.627289    14.416507    13.949049 
   21.470264    17.622765     14.41626    13.937006 
   6.2167937      17.6191    14.415858    13.926058 
  -67.039141    17.615683    14.416549    13.912829 
  -57.555363    17.609585    14.416573    13.898438 
   21.365833    17.601185    14.418813    13.886237 
  -29.142697    17.593639    14.420263      13.8754 
  -11.732721    17.584928    14.423796    13.863695 
   -49.99907    17.575747    14.429048    13.851606 
   49.375987    17.564567     14.43349    13.838916 
  -21.083643    17.555361    14.438894    13.826162 
  -4.2097051    17.545312    14.445049    13.813021 
   20.334802    17.535095    14.452357    13.798814 
   34.713626    17.525691    14.460542    13.786507 
   75.938805    17.517676    14.467797     13.77557 
  -3.9259457    17.512698     14.47342    13.765772 
   22.482527    17.507563    14.478871     13.75493 
  -31.140411    17.503327    14.487027    13.741195 
  -10.401479    17.497846    14.496246    13.728372 
 -0.44407595    17.491949    14.504962    13.716327 
  -3.9059942    17.486034     14.51264    13.704417 
   44.732192    17.479963    14.518368    13.693372 
   14.817089    17.475681     14.52354    13.680438 
   8.1476872    17.471992    14.527098    13.668018 
   46.049055    17.468628    14.529841    13.654417 
   13.072848    17.467107    14.529844    13.642217 
  -20.366569    17.466108     14.52999    13.631649 
   18.577573    17.464295     14.53034    13.620491 
   7.4960159    17.463225    14.531649    13.607384 
   8.4089081    17.462455    14.534802    13.592729 
  -67.071758    17.462021    14.536311    13.579942 
  -32.897819    17.458905    14.537382    13.569168 
   -29.36366    17.454472    14.537494    13.556726 
  -13.389875    17.448865    14.535919    13.543402 
  -30.920511    17.442722    14.535576      13.5313 
  -3.0721604    17.435343    14.536233    13.522458 
   2.1355086     17.42784    14.535681    13.514979 
   23.325769    17.420423    14.534095    13.507917 
  -17.228543    17.413939    14.532179    13.501539 
   72.167587    17.406766    14.531146    13.497239 
  -9.5414845    17.402479    14.530485    13.494613 
  -6.5025388    17.397811    14.529177    13.492581 
   29.056218    17.392883    14.529707    13.492314 
  -2.3559992    17.389117    14.530342    13.491786 
  -1.4804635    17.385257    14.531808    13.492869 
  -9.3953408    17.381337    14.533735    13.493219 
   61.551999    17.377042    14.535427    13.494011 
   4.9677942    17.375209     14.53608    13.494128 
   39.793649    17.373575    14.536839    13.495728 
    20.08986    17.373532    14.539061    13.496335 
   66.624011    17.374293    14.541368     13.49585 
  -17.985818    17.377719    14.544419    13.493126 
   38.787644    17.380425    14.548419    13.490747 
   20.972585    17.384683    14.553044    13.490989 
  -77.678643     17.38978    14.554044    13.490904 
   5.0025248     17.39177    14.556049    13.490047 
   -72.56697    17.393959    14.557109    13.489213 
    30.34821    17.393246    14.559809    13.488568 
  -36.543194    17.393748    14.560876    13.487961 
  -9.6465172    17.392787    14.563089    13.485964 
  -37.365293     17.39144    14.566629    13.483376 
   14.051312    17.388599     14.56894    13.479626 
   -47.61708     17.38632    14.568732    13.476638 
   23.559738    17.382136    14.568453    13.473442 
   14.083158    17.378895    14.568334    13.469623 
  -10.230142    17.376217    14.566767    13.465882 
   17.503599    17.373129    14.565664    13.461003 
   10.713306    17.370742    14.565309     13.45368 
  -10.955635    17.368784    14.565272    13.446984 
   43.517947    17.366387    14.564493    13.441608 
   21.203456    17.365731    14.563434    13.435357 
   42.521675    17.365923    14.563821    13.431278 
  -20.460815    17.367816    14.563382    13.427324 
  -24.664761     17.36889    14.562229    13.422713 
   10.619252    17.368978    14.560231    13.416288 
   4.3747918    17.369491    14.557135    13.411492 
   25.411242    17.370178    14.554116    13.406148 
   -27.46402    17.371882    14.550777    13.402319 
   1.1147869    17.372488    14.544448    13.396998 
  -16.482438    17.373138     14.53663    13.392572 
    27.87452    17.373129    14.526362    13.388993 
    20.76846    17.374235    14.515511    13.387491 
     6.11928    17.376171    14.502114    13.385921 
  -35.160674    17.378352    14.489472    13.386132 
   2.0762235    17.379127    14.478756    13.386613 
  -29.179487    17.379985     14.46766    13.386271 
   12.169633    17.379676    14.457493    13.385896 
   14.360292    17.379854    14.447967    13.385708 
  -15.425558    17.380605    14.439147    13.385851 
  -50.023125     17.38074    14.432069    13.382763 
     28.4346    17.378874     14.42552    13.377831 
   17.336184    17.378146    14.417971    13.371809 
  -25.799557    17.378111    14.411304    13.368385 
   -5.732864    17.377043    14.403697    13.365572 
   5.9163678    17.375747    14.394321    13.361125 
   66.701161    17.374687    14.387113    13.354519 
   48.875503    17.376295    14.380575    13.348176 
   9.2733509    17.379859    14.374496     13.34105 
   5.2117153    17.383793    14.368256    13.333056 
  -29.242404    17.387936    14.363748    13.326897 
   15.924584    17.390908    14.358341    13.320162 
   7.1496139    17.394518    14.354016    13.311315 
    46.90274    17.398414    14.351292    13.302866 
  -31.845841    17.404186    14.351485    13.294206 
   -70.22903    17.408685    14.351734     13.28426 
  -6.2995987    17.410374    14.354092    13.275545 
   34.646023    17.411811    14.358101    13.266299 
   -13.79528    17.414634    14.360965    13.258583 
    20.81939    17.416905    14.365504    13.251429 
   11.956635    17.420009    14.372642    13.244639 
  -27.168972    17.423591    14.379722    13.237459 
  -20.568856    17.426086     14.38658     13.22875 
   21.832744    17.427759    14.390719    13.218901 
   25.767694    17.430305    14.394071    13.208329 
  -47.034712    17.433881    14.398186    13.197605 
    44.86525    17.435576    14.400905    13.186147 
   -37.47254    17.439066     14.40381    13.176791 
   25.066143    17.441057    14.406378      13.1687 
  -9.2133704    17.444051    14.409904    13.161275 
   18.309024    17.446676    14.411285    13.155279 
   43.180027    17.450033    14.412459    13.149482 
   32.263046    17.455118    14.415325     13.14542 
   26.346608    17.461493     14.41726    13.143974 
   29.462936    17.468922    14.418871    13.143397 
  -31.620634     17.47753    14.421123    13.143258 
  -43.104057    17.484872    14.423526     13.14237 
   -12.41871    17.490491    14.425778    13.142885 
   15.112114    17.495613    14.429707    13.142513 
   9.8131499    17.501339    14.435688    13.140018 
  -51.533013    17.507458     14.43885      13.1358 
  -2.1821613    17.511515    14.443035    13.131996 
  -50.645035    17.515485    14.444663     13.12622 
   9.0986597     17.51743    14.445992    13.122152 
   17.339799    17.519738    14.448907    13.119357 
   15.291228     17.52274    14.451019    13.114845 
   29.566155    17.526354    14.452363    13.110257 
  0.85338955     17.53115    14.451035    13.104806 
   21.826349     17.53598    14.452009    13.100238 
  -18.062739    17.541684    14.452942    13.094432 
    53.09088    17.546665    14.453869    13.088382 
  -42.647909    17.553769    14.453402    13.083756 
 -0.27115804    17.559168    14.454663    13.080382 
  -81.757198    17.564556    14.456185    13.077499 
  -1.7998584    17.566673    14.456043    13.075267 
  -43.208732    17.568719    14.455086     13.07076 
   43.646223    17.569036    14.454852    13.067921 
  -29.402809    17.571099    14.452902    13.065771 
   8.5636283    17.571986    14.450397    13.064392 
  -52.157269    17.573215    14.448587    13.062696 
    14.42875    17.572358    14.447244    13.063921 
   15.191318    17.572078     14.44563    13.065243 
   11.675185    17.572406    14.443914    13.068345 
  0.58831757    17.573201    14.442808    13.072019 
  -8.2132095     17.57402    14.439776    13.074676 
   6.5556594     17.57451    14.437795    13.077689 
  -7.7448906    17.575262    14.434437    13.080507 
  -46.962201    17.575704     14.43045      13.0843 
   17.150145    17.574268    14.425907    13.086943 
   58.775695    17.573518    14.421306    13.088617 
   4.6746675    17.575119    14.417532    13.090995 
   1.5346739    17.576907    14.413423    13.093288 
   25.032795    17.578756    14.409263    13.095393 
  -10.729524    17.581607    14.405129    13.096682 
   75.354184    17.584028    14.400997    13.098625 
   -62.57643    17.589464    14.395793    13.097963 
   -29.58722    17.592397    14.389874     13.09802 
   20.232348    17.594146    14.384663    13.098492 
    63.24517    17.596704    14.379083    13.096948 
   9.7756695    17.601792    14.372376    13.098265 
   13.614505    17.607271    14.366852    13.099752 
   30.505787    17.613295    14.363559    13.099933 
  -23.617465    17.620539    14.358045    13.101858 
   10.286208    17.626838    14.354231     13.10434 
    8.048866    17.633549    14.351561    13.106277 
  -48.732192    17.640582    14.349053    13.106455 
    48.19106    17.645665    14.347063    13.104735 
   1.2447893    17.652676    14.344656    13.103331 
   38.416049    17.659737    14.342209    13.102269 
   64.595824    17.668335    14.341286    13.102359 
   7.1550974    17.679516    14.339167    13.103554 
   75.345792    17.690983    14.337084    13.105384 
  -27.255548    17.705465    14.334879    13.105917 
   4.8268508    17.718856    14.333597    13.105689 
  -19.998924     17.73244    14.330083    13.104812 
  -20.798179    17.745224    14.327623    13.104425 
   2.9569142    17.757177    14.323818    13.106131 
  -2.0126699    17.769247    14.320808    13.108588 
  -19.216387    17.781237    14.318606    13.112073 
  -38.315977    17.792459    14.316751    13.117143 
  -14.801623    17.802148    14.315011    13.121719 
  -16.711832    17.811244    14.312423    13.125836 
  -4.7014102    17.819673    14.310009    13.129042 
    -39.0504    17.827913    14.308422    13.133658 
  -6.1045243    17.834591    14.308699    13.138121 
 0.047950811    17.841025    14.310042    13.144493 
  -5.5969009    17.847461    14.309975    13.150868 
   20.914559    17.853673    14.310525    13.156511 
  0.63374795    17.860722    14.311315    13.162736 
  -14.126079    17.867796    14.311526    13.168112 
   5.6948394    17.874305    14.312317    13.174918 
   14.757025    17.881041    14.310707    13.182335 
  -35.988019    17.888368    14.306987    13.189453 
   14.624251    17.894256    14.302353    13.196734 
  -1.1577281    17.900728    14.298325    13.201645 
   67.116863    17.907155    14.292194    13.205547 
  -35.581386    17.916265    14.286164     13.20942 
   20.766667    17.923953    14.279961    13.214166 
  -40.808265    17.932471    14.274158    13.220331 
   19.151633    17.939357    14.269893    13.227315 
  -6.7454821    17.947009    14.264766    13.234653 
   13.755235    17.954391    14.260071    13.242614 
   42.355764    17.962324    14.255663    13.252128 
  -22.199987     17.97195    14.252064    13.263576 
  -64.968174    17.980689    14.249524    13.274944 
  -10.107531    17.986829     14.24882    13.286679 
   7.6679875    17.992564    14.248628    13.296343 
  -39.567459    17.998606    14.249007    13.303106 
   14.763034    18.003066    14.250903    13.307104 
  -37.861821    18.008116    14.251868    13.309978 
   2.2347031    18.011652    14.252236     13.30999 
   28.747609    18.015277    14.254585    13.309697 
   23.724841    18.020052    14.255144    13.306514 
   18.185914    18.025776    14.255826    13.301751 
   57.109155    18.032227    14.255217    13.295568 
   42.588719    18.040963    14.253057     13.29079 
  -29.386048    18.051402    14.250434    13.285564 
   43.260646    18.060666    14.247254    13.280749 
   23.679731     18.07166    14.244542    13.275436 
  -82.486204    18.083602    14.240669    13.270585 
  -41.208873    18.092244    14.236282      13.2674 
  -5.4993342    18.099237    14.231436    13.264356 
  -53.995905    18.106011    14.229153    13.259467 
   42.025685    18.110625    14.226709    13.253437 
   42.664565     18.11692    14.225037     13.24813 
   42.934573    18.124921    14.226523    13.242497 
  -11.137442     18.13464    14.229146    13.234648 
   -29.41975    18.143913    14.232613    13.227637 
   14.427808     18.15201    14.236844    13.218704 
  -32.240458    18.160683    14.240774    13.211261 
   3.0861224    18.168067    14.244809    13.203044 
    17.07449    18.175575    14.249609    13.195491 
  -9.2935405    18.183765    14.252903    13.188672 
  -24.845901    18.191584    14.256991    13.181935 
  -13.618385    18.198409     14.25924    13.173835 
   9.4386026    18.204689    14.261969    13.166838 
    24.24137    18.211347    14.265255    13.157421 
  -6.5563585    18.218974    14.270335    13.147503 
   19.284525    18.226339    14.274055    13.136185 
  -1.5372984    18.234476    14.275101    13.122858 
  -33.268956    18.242551     14.27612    13.106556 
   10.360039    18.249295    14.275606    13.089189 
  -40.273587    18.256454    14.274746    13.070795 
   6.5248256    18.262001    14.274455    13.051943 
  -16.594388     18.26781    14.274414    13.032991 
   -22.56398    18.272955    14.272763     13.01648 
   2.6184797    18.277197    14.273098    12.999591 
  -61.916061    18.281544    14.273843    12.983091 
  -9.3044038    18.283415    14.272801    12.964785 
   20.284948    18.284913    14.272725    12.945183 
  -42.993432    18.287223    14.274075    12.924197 
 -0.54070002    18.287813    14.275623    12.904132 
   2.8895763    18.288381    14.278841    12.884398 
   8.6569233    18.289065    14.282065    12.867517 
   26.987732    18.290095    14.284795    12.850788 
  -18.720571    18.292205    14.286108    12.834219 
  -24.815972    18.293565    14.286966    12.819393 
   10.770745    18.293934    14.286216    12.804575 
    19.19049    18.294733    14.285554    12.789921 
  -22.536714    18.296299    14.285558    12.774477 
   52.931737    18.296964    14.284531    12.759854 
  -29.136748    18.299747    14.281871    12.746994 
  -31.653512    18.301364    14.276312    12.737255 
   -30.44046    18.301715    14.272592    12.726796 
  -6.6657784    18.300848    14.267217    12.716045 
  -13.282236    18.299715    14.263096    12.707771 
    5.685832     18.29805    14.258322    12.700895 
   39.276702    18.296613    14.256132    12.695083 
  -2.0931724    18.296746    14.254938    12.689147 
  -52.029757    18.296796    14.255311    12.681983 
  0.46668075    18.294765    14.254278    12.673788 
   15.507372    18.292753    14.253681    12.666538 
   24.304237    18.291361    14.253052    12.658846 
  -34.733211    18.290941    14.253038    12.650299 
  -22.310746    18.289131    14.251844    12.642245 
  -36.100795     18.28643    14.251067    12.633749 
   13.934575    18.282284    14.249594    12.623975 
   9.1565834    18.278696     14.24943    12.613473 
   19.934977    18.275473     14.24907    12.604803 
  -6.2333386    18.273049    14.248489    12.597631 
  0.84711304    18.270375    14.247751    12.591571 
 0.077225736    18.267734    14.246393    12.584322 
   6.6624104    18.265097     14.24574    12.578454 
  -34.688763    18.262727    14.245725      12.5746 
   -3.564497    18.258969    14.245228    12.570324 
   37.268359    18.255068    14.244998    12.565092 
  0.39221812    18.252658    14.242001    12.559657 
   2.2504043    18.250264    14.239503    12.553251 
 -0.91622648    18.247959    14.237239    12.544308 
  -17.497723    18.245618     14.23551    12.533639 
  -10.280331    18.242578    14.233706    12.525104 
  -16.487728    18.239125    14.232278     12.51821 
  -11.070489    18.235014    14.231886    12.509936 
   44.689977     18.23046    14.233884    12.501453 
 -0.26193249    18.227693    14.237356     12.49488 
  -38.665638    18.224915    14.240279    12.486096 
   33.678878    18.220592    14.242973    12.478245 
   1.9956832    18.217615    14.246678    12.471053 
  -28.194051    18.214718    14.252344    12.463448 
  -43.049152    18.210693    14.257439    12.457705 
  -46.977754    18.204947    14.263311    12.453122 
    24.53127    18.197321    14.270078    12.447609 
   15.275662    18.190676    14.278074    12.443912 
   57.495409    18.184643    14.285055    12.442325 
   30.398121    18.180909     14.29158    12.439095 
  -20.435825    18.178392    14.296519    12.435252 
   -28.11476    18.175056    14.302438    12.430187 
  -16.972281    18.170597    14.306964    12.427628 
  -30.885017    18.165458    14.309256    12.425819 
   58.780106    18.159084    14.310282    12.423155 
    12.54294    18.155061    14.309535    12.420551 
  -11.834992     18.15154    14.309592    12.416607 
      22.281    18.147546      14.3102    12.413092 
   3.4096075    18.144442    14.309888    12.408204 
    32.03669    18.141475    14.307352    12.400781 
  -52.619155     18.13979    14.304734    12.392588 
  -28.030039       18.136    14.302522    12.384309 
   24.859882    18.131088    14.298898    12.375455 
  -28.139918    18.127171    14.295454    12.365898 
   60.949483    18.122129    14.293455      12.3564 
  -83.874167    18.119524    14.293924     12.34753 
    32.39039    18.113565    14.293514    12.337357 
   7.9842919    18.108901    14.295588    12.328186 
   44.426656    18.104556     14.29596    12.318808 
   29.149806    18.101988    14.295514    12.311664 
  -51.949554    18.100587     14.29453    12.304039 
   74.795471    18.097107    14.292951    12.296196 
  -43.402175     18.09662    14.290736     12.28784 
   21.217959    18.094396    14.288111    12.278243 
  -13.300164    18.093021    14.282963    12.267395 
   3.1398155    18.091114    14.277208    12.255747 
  -8.0417118    18.089332    14.270288    12.244617 
   12.421973    18.087229    14.266289    12.231384 
   67.121034    18.085623    14.263755    12.219105 
  -32.819345    18.086701    14.259754    12.206437 
   13.919698    18.086467    14.256875    12.193063 
  -20.703252     18.08679    14.255187    12.179605 
  -20.301505    18.086284    14.250037    12.165044 
  -12.397618    18.084967    14.244615    12.150158 
   7.6184503    18.083153    14.240085    12.135218 
  -11.877529    18.081644    14.234347    12.118489 
   31.856385    18.079661    14.227553    12.101123 
   46.634361    18.078951    14.221264    12.082751 
  -13.907477    18.080107    14.214532    12.064687 
   25.705157    18.080706    14.206838     12.04997 
  -16.511252    18.082334    14.198632    12.035729 
   18.750201    18.083301    14.189893    12.020517 
  -36.646102    18.085018    14.181422    12.005089 
   40.740908     18.08527    14.175022    11.991708 
   7.2348292    18.087151    14.168456    11.978647 
   5.6162958    18.089321     14.16085    11.964275 
  -48.578229    18.091716    14.155316    11.949433 
   16.059737    18.092168    14.150848    11.935896 
  -3.8010376    18.093262    14.147136    11.923177 
  -9.7315336    18.094205    14.142135    11.910731 
  -14.582436    18.094758    14.139007    11.899748 
   43.110193    18.094727    14.136284    11.889522 
   54.713544    18.096421    14.133837    11.879748 
   61.485638    18.100304     14.12966    11.871964 
  -13.254485    18.106646    14.125808    11.862944 
  -37.393511    18.112458    14.123114    11.853919 
  -7.2697091    18.116774    14.119309    11.844104 
   2.7843563      18.1208    14.116444    11.835647 
  -5.4781412    18.124936    14.114948    11.827627 
  -55.109115    18.128854    14.114895    11.819348 
  -41.325209    18.130567     14.11374    11.809513 
   17.185562    18.130628    14.111767    11.800513 
  -70.850599    18.131375      14.1094    11.792332 
   -9.745032    18.129289    14.109278    11.784507 
   74.649202    18.126813    14.108065    11.776864 
   2.4717623    18.127323    14.107027    11.768568 
   4.5393416    18.127931    14.106072    11.760936 
  -37.189203    18.128722    14.108105    11.755648 
  -5.9079935    18.128024    14.110197    11.751188 
   -23.81635    18.127091    14.111353    11.745689 
      16.293    18.125204    14.110123    11.740625 
   1.2469713     18.12397    14.107872    11.735156 
  -47.291342    18.122785    14.105434    11.730487 
   22.714536    18.119709    14.101795    11.725456 
   42.646329    18.117541     14.09678    11.721148 
   44.838521    18.117079    14.092962    11.715633 
   -25.16806    18.118411     14.08754    11.710887 
    -19.2134    18.118736    14.081078    11.707765 
   54.785249    18.118292    14.072615    11.705161 
  -5.8295329     18.12004    14.063521    11.700335 
  -58.493471    18.121555     14.05709     11.69567 
   7.0822762     18.12073     14.05104     11.68953 
    5.589308    18.120188    14.046263    11.684768 
   -11.80179    18.119869    14.040027    11.680163 
   17.935639    18.119079    14.033995    11.676585 
   12.799741    18.119006    14.027958    11.673315 
  -21.043966    18.119445    14.022187    11.668459 
   49.875565    18.119043    14.016476    11.661453 
  -21.179311    18.120635    14.009591    11.654064 
  -13.787448     18.12138    14.002013    11.647439 
   27.494132    18.121574    13.994491    11.642582 
  -12.451398    18.122867    13.986834    11.636671 
   12.746821    18.123663    13.978969     11.63214 
   16.164535    18.124968    13.973332    11.627953 
  -44.852916     18.12692    13.968212    11.622035 
  -15.108492    18.127078    13.964602    11.617215 
  -34.635207    18.126631    13.960518    11.613939 
   1.0300614    18.124799    13.954975    11.611108 
   21.329963    18.123008    13.948193    11.607712 
  -1.6571044     18.12207    13.941058    11.606353 
  -20.753137    18.121067    13.934145    11.604578 
   43.789016    18.119233    13.929011    11.603343 
   26.994556     18.11915    13.924635    11.603174 
  -11.048932    18.120147    13.922492    11.602644 
   36.133007    18.120703    13.922656    11.601174 
  -20.594019    18.122703    13.923499    11.597933 
   11.137079     18.12388    13.926231    11.594696 
   54.618536    18.125503    13.929568    11.591627 
   52.915797     18.12931    13.932405    11.588822 
  -17.229436    18.135234    13.938791    11.585603 
  -33.537574    18.140468    13.943703     11.58179 
   -18.23631    18.144361    13.948906    11.579319 
   25.307012    18.147525    13.954944    11.577475 
   4.0082608    18.151701    13.959334     11.57891 
   5.3022415    18.156037    13.965937     11.58089 
  -9.5342917    18.160585    13.972172    11.582468 
   24.368332    18.164752    13.976561    11.583001 
  -13.689999    18.169894    13.980308    11.585785 
   24.853239    18.174488    13.983439    11.589199 
   16.965342    18.180076     13.98731    11.592617 
  -22.281831    18.186343     13.99096    11.594819 
  -42.411003    18.191719    13.993938    11.598486 
   14.453088    18.195398    13.998719    11.600861 
  -70.883848    18.199655    14.002646    11.602755 
   24.539881    18.201077    14.005938    11.603874 
   8.8816312    18.203481    14.007071    11.605483 
  -9.5367584    18.206239    14.009132    11.607389 
   31.670384    18.208617    14.010073    11.607236 
   5.6714734    18.212261    14.011853    11.606482 
  -31.610374    18.216132    14.012618    11.605297 
  -12.146157    18.218738      14.0145    11.605925 
  -46.051892    18.220859    14.017407    11.607187 
  -7.2950984    18.221138    14.021149    11.607757 
  -15.967896    18.221125    14.024243     11.60577 
   31.456146    18.220473    14.027061    11.605602 
    51.97187    18.221079    14.030782    11.605974 
   17.534952    18.223764    14.033692     11.60614 
    8.819495    18.227151    14.037546     11.60642 
   2.1407105     18.23089    14.041354    11.605905 
   17.330163    18.234715    14.046673    11.607037 
   38.503418    18.239234    14.052711    11.609266 
   10.179692    18.245292    14.057914    11.610503 
  -23.883984    18.251757    14.064325    11.612051 
  -11.933859    18.257268     14.07325     11.61435 
   50.770538    18.262301    14.081762    11.617845 
  -29.611319    18.269364    14.089879     11.62139 
 -0.67535392    18.275243    14.098252    11.623926 
   49.832979    18.281096    14.104545    11.625794 
   14.078807    18.288941    14.111333    11.627594 
  -27.878085     18.29735     14.11933    11.629973 
   1.9329701    18.304643    14.127229    11.630168 
  -3.2885355    18.312014    14.136058    11.632514 
   62.537215    18.319254    14.147608    11.633962 
   43.992457    18.328994    14.158332     11.63595 
    5.631452    18.340495    14.168176    11.639917 
  -7.7322177    18.352221    14.177366    11.643423 
   27.046025    18.363637    14.186609    11.647468 
   19.574346    18.376136    14.196994    11.652095 
  -18.219599    18.389417    14.207953    11.655199 
  -35.842136    18.401969    14.218413    11.655462 
   29.783825    18.413088    14.229493    11.657255 
  -32.298621    18.425398    14.240056    11.658371 
  -19.961308    18.436417    14.250291    11.661114 
  -26.752436    18.446636    14.262244    11.663139 
  -4.7216708    18.455786     14.27548     11.66332 
   44.993559    18.464747    14.287752     11.66403 
  -49.027236    18.475508    14.302448    11.665421 
   -23.48035    18.484307    14.316573    11.663641 
   2.3756319    18.492167    14.330476    11.660941 
  -96.327974    18.500123    14.344056    11.658871 
   8.1811778    18.504225    14.358451    11.655852 
   23.312802    18.508654    14.371586    11.653397 
   28.652801    18.514016     14.38444    11.649365 
  -22.942461    18.520524    14.397381    11.646354 
   21.160619    18.526114    14.410579    11.642508 
  -57.301558    18.532551     14.42242    11.640126 
   90.539663    18.536696    14.433729    11.638723 
  -18.206834    18.544462    14.442782    11.639471 
  -45.610933      18.5515    14.451823    11.642336 
  -84.605902    18.556714    14.461683    11.647054 
   -15.08594    18.558543    14.470915    11.650106 
  -50.436262    18.559769    14.479956    11.652305 
   8.5165211    18.558978     14.48859    11.655384 
  -4.2532463    18.558527    14.497438    11.659206 
  -4.2206365    18.557906    14.505234    11.661964 
   49.171209    18.557116     14.51438    11.664073 
   -13.75208    18.558293    14.524715    11.666949 
   37.499126     18.55892    14.534518    11.671166 
   24.383648    18.561047    14.543861    11.673364 
   15.274774    18.564149    14.552721    11.673225 
  -53.859914    18.567862    14.562087    11.671353 
   38.502801    18.569421    14.572098    11.668107 
    57.03129     18.57252    14.581885    11.663084 
  -3.6221124      18.5779    14.590346    11.660078 
   20.080617    18.583135     14.59973    11.654404 
    16.85237    18.589174    14.607192    11.647604 
  -49.200009    18.595887    14.612978    11.642074 
     10.1633    18.600631    14.619482    11.635715 
  -27.893232    18.605782    14.627515     11.62962 
  -45.615964    18.609818     14.63639    11.623076 
    5.925147    18.612029    14.645982    11.614063 
  -53.963627    18.614476    14.655915    11.602604 
   15.671141    18.614766    14.663878    11.591076 
   26.835136    18.615682    14.673112    11.580362 
    23.96025    18.617671    14.680899    11.569018 
   2.3257272    18.620619    14.689985    11.557253 
  -55.926177     18.62366    14.698252    11.546445 
  -36.238413    18.624464    14.707519    11.534721 
   38.715114    18.623818    14.716921    11.525461 
  -99.805462    18.624721     14.72556    11.517526 
   21.414354    18.621632    14.734324    11.508031 
  -24.442123      18.6194    14.744007    11.502739 
   12.357029    18.616189    14.753714    11.496718 
  -8.9253708    18.613473    14.762965    11.492427 
   5.2605985      18.6104    14.771462    11.485777 
  -59.616888    18.607537    14.781832    11.478076 
   8.9640667     18.60229    14.790351    11.469419 
  -14.619698    18.597401    14.799352      11.4592 
  -38.311663    18.591928     14.80646    11.450302 
  -38.816576    18.584922    14.810006    11.442323 
   8.4337273    18.576363    14.812634    11.435004 
   44.690587    18.568142    14.818268    11.429531 
  -16.850764    18.561708    14.823496    11.425271 
   11.376144      18.5546    14.830004    11.418453 
   -9.903877    18.547947    14.837166      11.4114 
   53.793165    18.540898       14.844    11.405565 
   36.595731    18.536001    14.848976    11.400413 
   27.394931    18.532568    14.854858    11.392935 
   38.840381     18.53023    14.860617    11.386894 
   22.374242    18.529447    14.867739    11.380322 
  -52.693805    18.529558    14.873396    11.377034 
  -8.5320768    18.527561    14.876122    11.373531 
   77.800366    18.525223    14.878732    11.370752 
   -73.53913    18.525997    14.882541    11.368456 
   4.1149071     18.52383    14.885815    11.364824 
  -7.6126867    18.521827    14.887762    11.360212 
   16.530414    18.519519     14.89153    11.354987 
   30.034277    18.517873    14.893624    11.349264 
 -0.32496095    18.517428    14.895548    11.343407 
   43.511076     18.51697    14.897934    11.338106 
   39.704499    18.518253    14.898703    11.331916 
   30.032493    18.521124    14.898857    11.326652 
  -51.114049    18.525196    14.900724    11.320962 
   -31.32648    18.527223    14.901927    11.314834 
  -12.451504    18.527998    14.903288    11.307577 
  -8.8370037    18.528274    14.904498     11.30039 
  -19.646122    18.528197    14.907295    11.290471 
   37.390497    18.527334    14.912589    11.283834 
  -25.763843    18.527967    14.915714    11.277884 
   43.297776    18.527569    14.917359    11.270991 
   13.811208    18.528903    14.919518    11.262605 
   -2.699661     18.53079    14.922554    11.254153 
  -16.975683    18.532568    14.925614    11.245537 
  -64.838464    18.533668    14.928233    11.238767 
  -5.7138936    18.532174    14.930273    11.230284 
   10.377638    18.530451    14.932509    11.223317 
  -8.3926797    18.529143    14.935319     11.21621 
  -3.2344898      18.5275    14.938752    11.209051 
   23.618826    18.525728    14.942197    11.201892 
  -6.5755377      18.5249    14.943938    11.194058 
   25.722267    18.523809    14.946283     11.18762 
  0.25126523    18.523747     14.95023     11.17938 
  -41.586036    18.523695    14.953249    11.173187 
  -9.0499345     18.52198    14.955673    11.166421 
  -44.156815    18.519902    14.958481    11.162321 
  -14.898268    18.516059    14.959108    11.159274 
   41.150158    18.511619    14.957763    11.156017 
   -14.34443    18.508826     14.95461    11.153303 
  -12.878625    18.505458    14.949758     11.15207 
   0.1889247    18.501576    14.947928    11.151721 
  -18.842593    18.497701    14.946668     11.15371 
   -14.27406    18.493072    14.945523    11.155859 
   52.982113    18.487873    14.945058     11.15658 
   48.641845    18.484792     14.94481    11.156699 
   18.447363    18.483658    14.944403    11.154515 
   24.894445    18.483261    14.942511    11.155083 
    50.53886     18.48386    14.941799     11.15783 
  0.84441284    18.486481    14.940064    11.161944 
   -34.90463    18.489135    14.937449    11.163623 
   31.689415    18.490393    14.933915     11.16429 
  -55.050772    18.492919    14.928335    11.164353 
    24.44348    18.493243    14.922183    11.163582 
  -4.3335799    18.494544    14.916206    11.161904 
   43.937163    18.495673    14.909987    11.160957 
  -11.426784    18.498558    14.903042    11.160172 
   21.153114    18.500987    14.897336    11.158824 
   40.246496    18.504261    14.892318     11.15778 
   38.748883    18.509146    14.889275     11.15671 
   19.740524     18.51558    14.886301    11.155604 
   8.9738481    18.522805    14.884811    11.153664 
   30.902152    18.530388    14.884674    11.152449 
   3.4097176    18.539207    14.885812    11.152031 
  -18.702933    18.548162    14.886032    11.154305 
   27.579898     18.55637    14.888104    11.157678 
  -49.400667     18.56568    14.890641    11.161421 
   54.558201    18.573015    14.893048    11.166005 
   23.971223    18.582532    14.896294    11.169431 
   -56.72228    18.593008    14.900846    11.174491 
  -59.431323    18.601215    14.904755    11.180289 
  -11.571709    18.607044    14.907545    11.187262 
  -11.981785    18.612411    14.910072    11.196781 
  -56.207342    18.617298    14.912575    11.207612 
  -20.882117    18.619938    14.915901     11.21786 
  -7.5680971    18.621742    14.920875    11.226641 
   11.091255    18.623243    14.923172     11.23443 
   5.3721604    18.625188    14.925666    11.241075 
   57.574375    18.627347    14.927188     11.24896 
   43.075159     18.63181    14.927596    11.255108 
    15.94275    18.637996    14.928695    11.263081 
  -42.004105    18.644819    14.928478     11.27212 
  0.19000782    18.649962    14.930318    11.280585 
  -48.108392    18.655113    14.931136    11.288489 
   41.772913     18.65834    14.932713    11.297091 
   16.719432    18.663237    14.936375    11.307634 
   8.6684158    18.668803    14.940114    11.317088 
   20.729229    18.674716    14.942181    11.328305 
   15.035341    18.681458    14.944935    11.339949 
   60.519497    18.688802    14.948867    11.351404 
   50.393579    18.698566    14.952727    11.365043 
  -3.1313116    18.710346    14.956529    11.377641 
  -24.525397    18.722001    14.960866    11.390916 
  0.10649541    18.732675    14.965881    11.403229 
  -45.700843    18.743353     14.97178    11.415247 
  -17.924012    18.752203    14.978576    11.427513 
   17.593072    18.760336    14.985721     11.43793 
   3.3543584    18.769173    14.993699    11.449843 
  -15.741045    18.778144    15.001758    11.461172 
  -18.593734    18.786485     15.00968    11.470612 
  -48.273402    18.794083    15.016227    11.479731 
  -7.5198127    18.799749    15.022519    11.489304 
  -17.645293    18.805115    15.026975     11.50017 
  -31.546333    18.809775    15.032142    11.511134 
  -33.591878    18.813173    15.038347    11.518608 
   15.446146    18.815228    15.043265    11.523706 
   60.942332      18.8179    15.047983    11.527557 
   23.735958     18.82301    15.053334     11.53103 
   28.195489    18.829069    15.059139    11.534289 
   15.191172    18.836257    15.065108    11.538611 
   14.784575    18.844052    15.069638    11.543545 
   38.751295    18.852438    15.074589    11.549054 
  -66.167987    18.862374    15.078126    11.554154 
  -57.306162    18.869664    15.082927    11.559232 
   37.326761    18.874661    15.088109    11.565777 
  -99.533976    18.881152    15.093115    11.573583 
   49.833079    18.883661     15.09785    11.579955 
   -14.81437    18.888163    15.103164    11.585506 
   -51.63851    18.892073    15.107286    11.589578 
  -51.280368    18.893918    15.111399    11.593254 
   12.007695    18.893711    15.114536    11.596958 
   29.114686    18.893984    15.116887    11.601326 
   -35.94484    18.895422    15.118622    11.607401 
  -82.306489    18.895422    15.120006    11.613755 
   46.311074     18.89213    15.122537    11.619774 
   10.973606    18.890691    15.126792    11.625695 
  -31.705154     18.88969    15.131604    11.631396 
   12.890204    18.887421    15.136175    11.637854 
   30.478852    18.885668    15.140919    11.644259 
  -14.071571    18.885134    15.146747    11.652226 
   -58.93009    18.884037    15.152496    11.658508 
   8.8440972    18.880583    15.156971    11.665894 
  -67.630242    18.877482    15.159618    11.673185 
  -21.754522    18.871677    15.161121    11.680926 
   21.928293    18.865001    15.161724    11.685668 
   17.294097    18.859202    15.163167    11.688419 
  -55.874767    18.854095    15.164641     11.69185 
   23.151581    18.846753    15.165051    11.693592 
   9.9778894    18.840337    15.162164    11.694921 
[...]
    56.65665    27.902516    26.771443    11.839328 
   16.296401    27.910948    26.775755    11.835798 
  -58.768615    27.920032    26.780927    11.828551 
   -262.4554    27.926765     26.78575    11.820776 
  -102.47862       27.923    26.789148    11.812936 
  -10.378166    27.915136    26.789863    11.804343 
   55.130408    27.906856    26.792087    11.793403 
   56.529987    27.900782    26.793356    11.781683 
   91.207351    27.896969    26.794061    11.770468 
   71.498522    27.896804    26.794997    11.759348 
   67.789095    27.899499    26.795346    11.748184 
   93.616212    27.904906    26.796422    11.738705 
  -56.894695    27.914058    26.799059    11.729613 
  -156.39418    27.920933    26.801871    11.719729 
  -96.764816    27.921553    26.802953    11.712428 
  -50.421159    27.918303     26.80297     11.70657 
  -32.283148    27.913035    26.801569     11.69868 
    15.04232    27.906476    26.802579    11.693994 
   5.1567109    27.900519    26.802676    11.690084 
   159.10988    27.894768    26.801815    11.688386 
   131.76344    27.895382    26.800145    11.685358 
    104.3563    27.901266    26.799142    11.681376 
   -4.524809    27.911324    26.799321    11.679162 
  -183.97933    27.921201    26.798266    11.678108 
  -129.17111    27.923719     26.79896    11.678373 
  -112.19507    27.921071    26.797819    11.676839 
   -100.7967    27.913934    26.794888    11.674716 
  -37.242142    27.902766    26.788995    11.671797 
   154.36457    27.890108     26.78499    11.667248 
    161.7106    27.883624    26.778306    11.664128 
   241.40449    27.883609    26.770983    11.661441 
   130.58471     27.89325    26.763546    11.657887 
  -30.460892    27.908115    26.755683    11.654881 
  -274.77228    27.921761    26.743969    11.652475 
  -250.13179    27.924416    26.731492    11.650204 
  -91.795171    27.917066    26.716994    11.648445 
  -50.623198    27.906044    26.702299    11.646265 
   110.46026    27.892997    26.687886     11.64398 
   217.87664    27.884369    26.673061    11.640461 
    168.7995    27.884455    26.659646    11.635716 
   103.26354    27.891294    26.647316    11.630093 
   83.470577    27.902263     26.63728    11.623519 
  -85.313683    27.916571    26.628015    11.616631 
  -211.65268    27.927466    26.620942    11.606885 
  -210.65392    27.929896    26.615381    11.598036 
  -158.83913    27.923899    26.612079    11.586676 
  -33.283554    27.911549    26.607787    11.575023 
    44.09975    27.897867    26.601377    11.562512 
   179.99487    27.885949    26.599873    11.550553 
   208.74379    27.881231    26.598332    11.539412 
   142.53618    27.884863    26.596822    11.527271 
   87.972774    27.894196    26.595706    11.515768 
  -13.451752    27.907048    26.597596    11.503784 
  -140.40936    27.919362    26.598877    11.492975 
  -338.67713     27.92606    26.601567    11.481599 
  -157.41277    27.919211     26.60458    11.469473 
  -22.757713    27.906065    26.608252    11.457505 
   124.23949    27.892009    26.611317    11.446043 
   199.84288    27.882922    26.617249    11.435238 
   248.38148    27.881829    26.624913    11.425386 
   107.52019    27.890671    26.632515    11.417824 
   36.356049    27.903815    26.641212    11.409877 
  -53.731765    27.918412    26.650038    11.403877 
  -276.93316     27.93086    26.657263    11.397581 
  -322.16079    27.932231    26.665103    11.390705 
  -71.930761    27.920715    26.671723    11.383797 
   34.438851    27.906323    26.680536    11.376068 
   193.22751    27.893307    26.690999    11.370245 
   149.81376    27.888021    26.700218    11.362907 
   172.00631    27.888727    26.709207    11.353936 
   78.397737    27.896314    26.717187     11.34364 
  -32.322229    27.907037    26.725193    11.336146 
  -55.902548    27.916466    26.732398    11.329934 
     -198.17     27.92366     26.73936    11.324249 
  -204.99618    27.922926     26.74691    11.321162 
  -168.83939    27.913993    26.754449    11.319267 
   192.93245    27.898307    26.761994    11.317811 
    210.9423    27.890337    26.771673    11.318993 
   155.31831    27.890805    26.782947    11.321542 
   69.228138    27.897487    26.793832    11.324528 
  -39.181091    27.906937    26.805479    11.327411 
  -41.186282     27.91482    26.819433    11.330489 
   -51.42224    27.921055    26.834782    11.332683 
  -147.16062    27.925234    26.849068    11.333219 
  -187.62302    27.923526    26.863248    11.335842 
  -95.837381    27.914313      26.8748    11.337544 
    62.07256    27.901267     26.88514    11.336078 
   202.96566    27.890703     26.89541    11.333354 
   199.39975    27.888259    26.905338    11.331543 
   164.87863     27.89379     26.91529    11.330039 
   17.376682    27.905916    26.926415    11.327314 
  -113.94478    27.918738    26.938464    11.323435 
  -243.07613    27.927001    26.950052    11.316083 
  -161.74187    27.925542    26.966259    11.307001 
  -84.968469    27.917613    26.983076    11.296207 
   48.949344    27.906285    27.000761    11.285613 
   147.21261    27.896915    27.017624    11.272776 
   157.79876    27.893434    27.035917    11.261301 
     99.5786    27.896265    27.052812     11.24969 
  -5.9414614    27.903078     27.06996    11.237361 
  -46.305174    27.909655    27.085577    11.227099 
  -77.054521    27.914378    27.102149    11.215684 
  -30.325754     27.91602    27.119637    11.205231 
  -114.61954    27.916449    27.135656    11.196655 
  -15.772541    27.912293    27.150075     11.18693 
   94.569542    27.907506    27.165292    11.176863 
    80.83989    27.906502    27.180209    11.166671 
   30.753367    27.908731    27.194395    11.160122 
  -41.285182    27.912191    27.209278    11.156109 
  -49.199227    27.913999    27.224201    11.152351 
  -1.6130565    27.913839    27.237846    11.149827 
  -20.514692    27.913614     27.25149    11.146412 
  -88.347776     27.91257    27.267249    11.144649 
  -23.306115    27.907991    27.278945    11.142368 
   177.62164     27.90248    27.290066    11.137657 
   40.983478    27.904073    27.300454    11.132144 
    31.19921    27.907306    27.309207    11.124278 
  -83.996969    27.911787    27.315451     11.11727 
  -58.512859    27.912909    27.321506    11.111204 
   4.5949234    27.911689    27.326663    11.106032 
   36.792775    27.910654    27.331925    11.100895 
  -19.783098     27.91109     27.33641    11.097174 
  -75.523022    27.910735    27.341668    11.093843 
   80.543184    27.907359    27.347501    11.090319 
 -0.59912485    27.907204    27.351452    11.088077 
   10.277274    27.907026     27.35546    11.088094 
  -64.817525    27.907259    27.358135     11.09145 
  -29.562828    27.904899    27.360074      11.0957 
   41.874908    27.901357     27.36304    11.101012 
   104.51443    27.899489    27.365407    11.107432 
   95.182459    27.901802    27.368931    11.114552 
  -11.310757    27.907923    27.373273    11.121716 
  -81.790643    27.913591    27.379121    11.128908 
   -92.88598    27.915987    27.386598    11.133664 
  -125.39705    27.914668    27.393085    11.137969 
    35.93393    27.908333      27.3991     11.14141 
   28.785003    27.903436    27.405321    11.144411 
   63.149845    27.899689    27.412505    11.147054 
  -22.381301    27.898469    27.418353    11.149618 
   97.556884    27.896354    27.426423    11.154698 
     150.876    27.898141    27.436101     11.16029 
   66.143248    27.905963    27.444434    11.167017 
  -63.759943     27.91643     27.45235    11.171843 
  -158.54878    27.924347    27.458327    11.175597 
  -160.84583    27.925923    27.462924    11.178222 
  -160.84968    27.921064    27.467348    11.179081 
 -0.84424333    27.909771    27.469752     11.17837 
   48.912773    27.898445    27.472802    11.177585 
   142.11112    27.889075    27.476159    11.172996 
    202.8508     27.88539    27.479622    11.166629 
   110.44663    27.889819    27.482928    11.161513 
   25.769574    27.898665    27.485943    11.154299 
   -62.13441    27.908542    27.487762    11.145608 
  -147.31229    27.915934     27.48907    11.135845 
  -175.98528    27.917434    27.486475    11.125376 
  -41.385368    27.911894    27.482106    11.114765 
   69.842531    27.904698    27.476103    11.103041 
   16.735848    27.900297    27.466289    11.092205 
   83.890888    27.896565    27.457001    11.083118 
   100.94299    27.896188    27.446107    11.074923 
   57.206914    27.899849    27.437977    11.066726 
   18.713758    27.905798    27.430384    11.058852 
   -25.17169    27.912496    27.422895    11.050127 
  -174.15215    27.918187    27.414693    11.043204 
  -143.36239    27.916912    27.406317    11.037685 
   21.289274    27.909903    27.398734    11.034916 
   78.969713    27.903745    27.390202    11.035688 
   47.615323    27.900746    27.381383    11.036471 
   29.026983    27.899651    27.373896    11.038779 
   39.583552    27.899718    27.367096    11.042356 
    82.57113    27.901368    27.361806    11.049454 
  -15.365707     27.90632    27.354832    11.055968 
  -25.461286    27.910658    27.348728    11.063547 
  -99.719356    27.913978    27.343473      11.0708 
  -87.132048    27.913309    27.338192    11.078627 
  -16.743474    27.909155    27.334186     11.08598 
   58.332844     27.90433      27.3294    11.093733 
  -4.1343237     27.90184     27.32545    11.100929 
  -12.617559    27.899183    27.322976    11.108415 
   29.496096    27.896022    27.320124    11.115542 
   107.16623    27.894041    27.316347    11.121713 
   78.250756    27.896347    27.315242    11.128887 
   73.087923    27.901783    27.312446    11.133088 
  -65.981746    27.910142    27.309646    11.137791 
  -121.27476    27.915862    27.307658    11.141175 
  -150.64179     27.91673    27.305804    11.144402 
  -59.415176    27.911574    27.301637    11.147829 
  -8.4389392     27.90404    27.298224    11.151255 
   99.342024    27.896169    27.295725    11.154234 
   91.924659    27.892272    27.294677    11.153824 
   115.04862    27.892052    27.294869    11.153491 
   69.855391    27.896433    27.296994    11.154736 
  -44.219073    27.903609     27.29819    11.155524 
   2.4445171    27.909016    27.302478    11.154809 
   -72.04415    27.914521    27.306782    11.154219 
  -129.29659    27.917144    27.311903    11.151488 
  -147.74645    27.914595    27.318199    11.148136 
   78.311848    27.906137     27.32795    11.144163 
   38.790992    27.900811    27.340854    11.140864 
    114.1009    27.897036    27.356894    11.136999 
   77.745349    27.897826     27.37098    11.134402 
   54.890227    27.901725    27.382451    11.131334 
   47.479507     27.90782    27.394061    11.131761 
  -86.507934    27.915814    27.404193    11.132605 
  -112.06849    27.920348    27.413395    11.133901 
  -92.400865    27.920399    27.423877    11.136741 
  -64.507417    27.916754    27.434207      11.1425 
   21.432201    27.910529    27.443145    11.148199 
   113.18864    27.905161    27.452101    11.153935 
   168.71528     27.90432    27.459371    11.161758 
  -49.029586    27.910229    27.465595    11.169127 
  -80.919917    27.914176    27.471249    11.178315 
  -58.300568    27.914886    27.477146    11.187123 
  -31.549304    27.913264    27.485126    11.196573 
   69.985598     27.91038    27.490639    11.206741 
   14.340631    27.910296    27.494925    11.214228 
  -24.125906    27.910785    27.500302    11.221205 
  -7.4975469    27.910309    27.505177    11.228023 
   9.9329157    27.909534     27.51148    11.234262 
  -45.314968    27.909155    27.513584    11.241648 
   32.501925    27.906965    27.512799    11.249617 
   71.252796    27.906074    27.511466    11.259069 
  -60.084427    27.908033    27.509097    11.270543 
   60.422419    27.907589    27.508197    11.283497 
  -12.619201    27.909562    27.505359    11.298615 
  -35.974141    27.911029    27.500114    11.314049 
  -42.575838    27.911059    27.493404    11.330297 
   9.0248985    27.909385    27.485644     11.34703 
  -24.837056    27.908072    27.478691    11.363937 
   135.31583    27.905765    27.473081    11.381498 
   79.143563    27.908871    27.468112    11.398299 
  -28.624295    27.915143    27.461607    11.414648 
  -72.707602     27.92027    27.456098    11.431249 
   -94.63859    27.922489    27.450709    11.448492 
   -136.3081    27.920922    27.447004    11.465919 
   -4.546367    27.913902    27.442899    11.482889 
   25.562797    27.906701    27.438433    11.499236 
   106.87727    27.900523    27.434669    11.514824 
   111.36791    27.898619    27.431844    11.530034 
   169.91877     27.90117    27.426503    11.546501 
   14.087089    27.910518    27.422239    11.563259 
  -175.61151     27.92043    27.418501    11.577674 
  -246.86233    27.923317    27.414967    11.593183 
  -74.637573    27.916329    27.410291    11.606562 
   22.136504    27.906356     27.40696    11.619216 
   104.38305    27.897269    27.404348    11.630736 
   74.970971    27.892356    27.404063    11.639292 
   104.85849    27.890443    27.404323    11.646547 
   103.32526    27.892724    27.403023    11.650026 
   93.177019    27.899138    27.402817    11.650235 
  -43.560453    27.909279    27.402728    11.649906 
  -121.44732    27.917677    27.404151    11.648603 
   -136.5788    27.921218    27.405574    11.646799 
  -46.732492    27.919296     27.40439    11.645946 
  -80.396977    27.915504    27.405589     11.64426 
    8.228787    27.908496    27.406122    11.645562 
   136.69474    27.901818    27.407112    11.645253 
   54.778902    27.900607    27.408465    11.645515 
   139.54227    27.901588    27.410934    11.646626 
  -31.558547     27.90815    27.413237     11.64924 
  -44.132833     27.91345    27.414787    11.649423 
  -57.792637    27.916984    27.419078     11.65004 
  -95.062529    27.918207    27.423144    11.650962 
  -65.636819    27.915627    27.428489    11.653153 
   7.3432575    27.910422    27.433355     11.65671 
   73.247901    27.905511    27.437542    11.660327 
  -5.8501826    27.903529    27.441635    11.663851 
     29.7547    27.901314    27.446665    11.665491 
   64.404027    27.900289     27.45281    11.668012 
   3.2861193    27.901839    27.456757    11.668295 
  -56.993073    27.903522    27.460276     11.66953 
   -21.26602    27.902924    27.461976    11.669521 
   7.1247399    27.901476    27.460923    11.668158 
   106.01746    27.900313    27.460847    11.667194 
   27.042004    27.903391    27.462405    11.666269 
  -49.538493     27.90755    27.462391    11.664071 
  -94.510801    27.909728    27.461335    11.661616 
  -8.7886954    27.908125    27.458806    11.658284 
   11.387758    27.906171    27.456668    11.656383 
     54.4663    27.904672    27.454003    11.656508 
    11.94989    27.905352    27.450866    11.655986 
   1.5801874     27.90651     27.44807    11.655567 
  -44.072783    27.907731    27.444294    11.654566 
   -67.07232    27.907189    27.441472    11.655471 
   5.9543781    27.903964    27.441185    11.655876 
  -1.3513055    27.900978    27.440356    11.655495 
  -53.821232    27.897937    27.439438     11.65466 
   97.837397    27.892744    27.438103    11.652506 
    97.96399    27.891464     27.43314    11.650131 
    57.84492    27.894103    27.428347    11.648925 
   21.526312    27.899055    27.426236     11.64833 
  -17.343593    27.904869    27.423384    11.648437 
  -138.81731    27.909988    27.419593    11.647658 
  -103.15812    27.909556    27.418563    11.650269 
   5.1249484    27.904996    27.419965    11.653223 
  -44.816343    27.900642    27.420737    11.654969 
   15.966815    27.894495    27.419867    11.657152 
   209.65771    27.888987    27.418615    11.658495 
   61.993355    27.891865    27.415236    11.660849 
   71.860647    27.897223    27.411006    11.662034 
   -64.74362    27.905455    27.407707    11.664845 
  -156.44251    27.911097    27.405198    11.667877 
  -20.554277    27.910482    27.403805    11.673101 
  -11.224528    27.909045    27.403302    11.679144 
  -7.8896537    27.907158    27.403048    11.684869 
   -52.73305    27.904956    27.403395    11.689808 
   76.612263    27.900645    27.404797    11.693528 
   101.25833    27.899398    27.405888    11.696912 
   51.161037    27.902202    27.406779    11.699282 
   -182.9629    27.907052    27.407642    11.700118 
  -51.043259    27.904583    27.409263    11.700129 
   38.887757    27.900073    27.408507    11.700594 
   67.703972    27.897118    27.407103    11.699635 
  -16.572416    27.896872    27.405221    11.698837 
    78.97945    27.895962    27.403629    11.698671 
  -5.0501084    27.898212    27.401988    11.700225 
   12.375792     27.90026    27.402101    11.698475 
   41.009217    27.902802    27.402387     11.69596 
   14.021476    27.906986    27.398146    11.692293 
  -183.34062    27.911729    27.392029    11.689586 
  -151.17726     27.90914    27.386547    11.685853 
   21.700513    27.900503    27.380475    11.683557 
   111.53547    27.892734    27.375453    11.678479 
   165.06899    27.889427    27.367369    11.671101 
   79.475085    27.892722    27.359999    11.665557 
   34.362603    27.899197    27.352748    11.659717 
  -12.955725    27.907046    27.343947    11.656813 
  -111.89093    27.914376    27.334882    11.654657 
  -163.59312    27.917231    27.326235     11.65272 
  -115.45677    27.913543    27.318655    11.651811 
  -67.106573    27.905236    27.311446    11.650502 
   9.2740529    27.894245     27.30444    11.647366 
    136.5743    27.883624    27.301034    11.641209 
   190.60238    27.878467    27.297449    11.633462 
   134.71267    27.880934     27.29538    11.626433 
  -9.2138415    27.888789    27.294823    11.620229 
  -184.13026    27.896276    27.295961    11.614533 
  -138.19319    27.896398    27.298805    11.609167 
  -74.080214    27.890992    27.299438    11.604681 
  -76.935249    27.882622    27.301951    11.598997 
  -8.5452171    27.871176    27.304608    11.594867 
   148.44136    27.859387    27.309501    11.590126 
   227.20853    27.853536    27.316586       11.586 
   193.13318    27.856773    27.326372    11.580437 
    101.0053    27.867736    27.338658    11.575792 
   76.914326    27.882739    27.349426    11.567703 
  -128.99063    27.900819    27.358145    11.560873 
  -207.05843    27.913739    27.366176    11.557154 
  -142.49918    27.918376    27.374472    11.552836 
  -73.350474    27.917314    27.385469    11.548996 
   19.144657    27.913317    27.397793    11.547719 
ERROR on proc 0: Bond atoms 8 9 missing on proc 0 at step 27990 (../neigh_bond.cpp:65)
--------------------------------------------------------------------------
MPI_ABORT was invoked on rank 0 in communicator MPI_COMM_WORLD 
with errorcode 1.

NOTE: invoking MPI_ABORT causes Open MPI to kill all MPI processes.
You may or may not see output from other processes, depending on
exactly when Open MPI kills them.
--------------------------------------------------------------------------
--------------------------------------------------------------------------
mpirun has exited due to process rank 0 with PID 25468 on
node n0113.savio2 exiting improperly. There are two reasons this could occur:

1. this process did not call "init" before exiting, but others in
the job did. This can cause a job to hang indefinitely while it waits
for all processes to call "init". By rule, if one process calls "init",
then ALL processes must call "init" prior to termination.

2. this process called "init", but exited without calling "finalize".
By rule, all processes that call "init" MUST call "finalize" prior to
exiting or it will be considered an "abnormal termination"

This may have caused other processes in the application to be
terminated by signals sent by mpirun (as reported here).
--------------------------------------------------------------------------
