LAMMPS (31 Mar 2017)
# Sample LAMMPS script for modulating the probability that a hexamer passes
# a pore with pulling force on a LJ wall, under Langevin dynamics

# settings
# a 3D 60 box
variable      x equal 60
variable      y equal 30
variable      z equal 30
# temperature t = 1
variable      t equal 1
#variable      rho equal 0.7
neigh_modify  delay 0 check yes one 200000 page 2000000


# System setup

units         lj
dimension     3
atom_style    bond
bond_style    harmonic
pair_style    lj/cut 3
#processors    2 2 2
read_data     data.polymer
  orthogonal box = (0 0 0) to (60 30 30)
  1 by 1 by 1 MPI processor grid
  reading atoms ...
  8887 atoms
  scanning bonds ...
  1 = max bonds/atom
  reading bonds ...
  9 bonds
  2 = max # of 1-2 neighbors
  2 = max # of 1-3 neighbors
  4 = max # of 1-4 neighbors
  6 = max # of special neighbors

# LJ pairs

# lattice       fcc ${rho}
# region        simbox block 0 $x 0 $y 0 $z
#create_box    1 simbox
region        void cylinder x 15 15 2 29 31
#region        wall block 29 31 0 30 0 30



#create_atoms  3 region wall
#delete_atoms  region void
pair_coeff    1 2 2.5 1
pair_coeff    1 3 2.5 1 1.12
pair_coeff    2 3 2.5 1 1.12

velocity      all create $t 97287
velocity      all create 1 97287


# Read bond/position info
group         polymer type 1 2
10 atoms in group polymer
group         first type 1
1 atoms in group first
region        box block 0 $x 0 $y 0 $z
region        box block 0 60 0 $y 0 $z
region        box block 0 60 0 30 0 $z
region        box block 0 60 0 30 0 30
region        spherein sphere 29 15 15 2
region        boxin block 27 29 13 17 13 17
region        hemiin intersect 2 boxin spherein
region        print block 29 31 12 18 12 18
group         print region print
300 atoms in group print
#region        sphereout sphere 31 15 15 2
#region        boxout block 31 33 13 17 13 17
#region        hemiout intersect 2 boxout sphereout


# Create forces
#variable      ftotal equal fcm(polymer,x)
fix           1 polymer nve
fix           2 polymer langevin $t $t 1 1209
fix           2 polymer langevin 1 $t 1 1209
fix           2 polymer langevin 1 1 1 1209
timestep      0.01
# equilibration run
thermo        1000
compute       com polymer com
thermo_style custom c_com[1] c_com[2] c_com[3]
fix           3 polymer spring tether 1 25.4 NULL NULL 0
run           5000
Neighbor list info ...
  update every 1 steps, delay 0 steps, check yes
  max neighbors/atom: 200000, page size: 2000000
  master list distance cutoff = 3.3
  ghost atom cutoff = 3.3
  binsize = 1.65, bins = 37 19 19
  1 neighbor lists, perpetual/occasional/extra = 1 0 0
  (1) pair lj/cut, perpetual
      attributes: half, newton on
      pair build: half/bin/newton
      stencil: half/bin/3d/newton
      bin: standard
Per MPI rank memory allocation (min/avg/max) = 11.85 | 11.85 | 11.85 Mbytes
c_com[1] c_com[2] c_com[3] 
        17.5           15           15 
   23.534837    14.892386    13.805178 
   24.075971      15.2729    12.608265 
   24.772316    14.394596    13.549527 
   24.762875    14.905821    10.321085 
   25.683149    15.756865    7.2696265 
Loop time of 22.1335 on 1 procs for 5000 steps with 8887 atoms

Performance: 195179.509 tau/day, 225.902 timesteps/s
99.8% CPU use with 1 MPI tasks x no OpenMP threads

MPI task timing breakdown:
Section |  min time  |  avg time  |  max time  |%varavg| %total
---------------------------------------------------------------
Pair    | 8.0186     | 8.0186     | 8.0186     |   0.0 | 36.23
Bond    | 0.002357   | 0.002357   | 0.002357   |   0.0 |  0.01
Neigh   | 13.404     | 13.404     | 13.404     |   0.0 | 60.56
Comm    | 0.29154    | 0.29154    | 0.29154    |   0.0 |  1.32
Output  | 6.1274e-05 | 6.1274e-05 | 6.1274e-05 |   0.0 |  0.00
Modify  | 0.14485    | 0.14485    | 0.14485    |   0.0 |  0.65
Other   |            | 0.2725     |            |       |  1.23

Nlocal:    8887 ave 8887 max 8887 min
Histogram: 1 0 0 0 0 0 0 0 0 0
Nghost:    4323 ave 4323 max 4323 min
Histogram: 1 0 0 0 0 0 0 0 0 0
Neighs:    185689 ave 185689 max 185689 min
Histogram: 1 0 0 0 0 0 0 0 0 0

Total # of neighbors = 185689
Ave neighs/atom = 20.8945
Ave special neighs/atom = 0.00540115
Neighbor list builds = 828
Dangerous builds = 0
unfix         3
reset_timestep 0
fix 3 polymer smoothforce 29 31 0.15 1 3
change_box    all boundary f p p
fix 4 polymer wall/reflect xlo 21.5 xhi 39.5
thermo        10


run 10
Per MPI rank memory allocation (min/avg/max) = 11.84 | 11.84 | 11.84 Mbytes
c_com[1] c_com[2] c_com[3] 
   25.683149    15.756865    7.2696265 
   25.686383    15.814587    7.2476284 
Loop time of 0.0490429 on 1 procs for 10 steps with 8887 atoms

Performance: 176172.146 tau/day, 203.903 timesteps/s
99.9% CPU use with 1 MPI tasks x no OpenMP threads

MPI task timing breakdown:
Section |  min time  |  avg time  |  max time  |%varavg| %total
---------------------------------------------------------------
Pair    | 0.015903   | 0.015903   | 0.015903   |   0.0 | 32.43
Bond    | 3.0994e-06 | 3.0994e-06 | 3.0994e-06 |   0.0 |  0.01
Neigh   | 0.031635   | 0.031635   | 0.031635   |   0.0 | 64.50
Comm    | 0.00058556 | 0.00058556 | 0.00058556 |   0.0 |  1.19
Output  | 9.0599e-06 | 9.0599e-06 | 9.0599e-06 |   0.0 |  0.02
Modify  | 0.00035548 | 0.00035548 | 0.00035548 |   0.0 |  0.72
Other   |            | 0.0005515  |            |       |  1.12

Nlocal:    8887 ave 8887 max 8887 min
Histogram: 1 0 0 0 0 0 0 0 0 0
Nghost:    4323 ave 4323 max 4323 min
Histogram: 1 0 0 0 0 0 0 0 0 0
Neighs:    185689 ave 185689 max 185689 min
Histogram: 1 0 0 0 0 0 0 0 0 0

Total # of neighbors = 185689
Ave neighs/atom = 20.8945
Ave special neighs/atom = 0.00540115
Neighbor list builds = 2
Dangerous builds = 0
run 10
Per MPI rank memory allocation (min/avg/max) = 11.84 | 11.84 | 11.84 Mbytes
c_com[1] c_com[2] c_com[3] 
   25.686383    15.814587    7.2476284 
   25.679606    15.872143    7.2309623 
Loop time of 0.049535 on 1 procs for 10 steps with 8887 atoms

Performance: 174421.999 tau/day, 201.877 timesteps/s
100.9% CPU use with 1 MPI tasks x no OpenMP threads

MPI task timing breakdown:
Section |  min time  |  avg time  |  max time  |%varavg| %total
---------------------------------------------------------------
Pair    | 0.015717   | 0.015717   | 0.015717   |   0.0 | 31.73
Bond    | 1.9073e-06 | 1.9073e-06 | 1.9073e-06 |   0.0 |  0.00
Neigh   | 0.0323     | 0.0323     | 0.0323     |   0.0 | 65.21
Comm    | 0.00059366 | 0.00059366 | 0.00059366 |   0.0 |  1.20
Output  | 9.0599e-06 | 9.0599e-06 | 9.0599e-06 |   0.0 |  0.02
Modify  | 0.00035    | 0.00035    | 0.00035    |   0.0 |  0.71
Other   |            | 0.0005641  |            |       |  1.14

Nlocal:    8887 ave 8887 max 8887 min
Histogram: 1 0 0 0 0 0 0 0 0 0
Nghost:    4323 ave 4323 max 4323 min
Histogram: 1 0 0 0 0 0 0 0 0 0
Neighs:    185689 ave 185689 max 185689 min
Histogram: 1 0 0 0 0 0 0 0 0 0

Total # of neighbors = 185689
Ave neighs/atom = 20.8945
Ave special neighs/atom = 0.00540115
Neighbor list builds = 2
Dangerous builds = 0
run 10
Per MPI rank memory allocation (min/avg/max) = 11.84 | 11.84 | 11.84 Mbytes
c_com[1] c_com[2] c_com[3] 
   25.679606    15.872143    7.2309623 
   25.665107    15.937158    7.2010492 
Loop time of 0.0326588 on 1 procs for 10 steps with 8887 atoms

Performance: 264553.380 tau/day, 306.196 timesteps/s
101.0% CPU use with 1 MPI tasks x no OpenMP threads

MPI task timing breakdown:
Section |  min time  |  avg time  |  max time  |%varavg| %total
---------------------------------------------------------------
Pair    | 0.015613   | 0.015613   | 0.015613   |   0.0 | 47.81
Bond    | 5.9605e-06 | 5.9605e-06 | 5.9605e-06 |   0.0 |  0.02
Neigh   | 0.015786   | 0.015786   | 0.015786   |   0.0 | 48.34
Comm    | 0.00043035 | 0.00043035 | 0.00043035 |   0.0 |  1.32
Output  | 9.0599e-06 | 9.0599e-06 | 9.0599e-06 |   0.0 |  0.03
Modify  | 0.00036001 | 0.00036001 | 0.00036001 |   0.0 |  1.10
Other   |            | 0.0004542  |            |       |  1.39

Nlocal:    8887 ave 8887 max 8887 min
Histogram: 1 0 0 0 0 0 0 0 0 0
Nghost:    4323 ave 4323 max 4323 min
Histogram: 1 0 0 0 0 0 0 0 0 0
Neighs:    185689 ave 185689 max 185689 min
Histogram: 1 0 0 0 0 0 0 0 0 0

Total # of neighbors = 185689
Ave neighs/atom = 20.8945
Ave special neighs/atom = 0.00540115
Neighbor list builds = 1
Dangerous builds = 0
run 10
Per MPI rank memory allocation (min/avg/max) = 11.84 | 11.84 | 11.84 Mbytes
c_com[1] c_com[2] c_com[3] 
   25.665107    15.937158    7.2010492 
   25.656054    15.983977    7.1658737 
Loop time of 0.0326898 on 1 procs for 10 steps with 8887 atoms

Performance: 264302.547 tau/day, 305.906 timesteps/s
97.9% CPU use with 1 MPI tasks x no OpenMP threads

MPI task timing breakdown:
Section |  min time  |  avg time  |  max time  |%varavg| %total
---------------------------------------------------------------
Pair    | 0.015596   | 0.015596   | 0.015596   |   0.0 | 47.71
Bond    | 9.5367e-07 | 9.5367e-07 | 9.5367e-07 |   0.0 |  0.00
Neigh   | 0.01584    | 0.01584    | 0.01584    |   0.0 | 48.46
Comm    | 0.00042105 | 0.00042105 | 0.00042105 |   0.0 |  1.29
Output  | 9.0599e-06 | 9.0599e-06 | 9.0599e-06 |   0.0 |  0.03
Modify  | 0.00036669 | 0.00036669 | 0.00036669 |   0.0 |  1.12
Other   |            | 0.0004561  |            |       |  1.40

Nlocal:    8887 ave 8887 max 8887 min
Histogram: 1 0 0 0 0 0 0 0 0 0
Nghost:    4323 ave 4323 max 4323 min
Histogram: 1 0 0 0 0 0 0 0 0 0
Neighs:    185689 ave 185689 max 185689 min
Histogram: 1 0 0 0 0 0 0 0 0 0

Total # of neighbors = 185689
Ave neighs/atom = 20.8945
Ave special neighs/atom = 0.00540115
Neighbor list builds = 1
Dangerous builds = 0
run 10
Per MPI rank memory allocation (min/avg/max) = 11.84 | 11.84 | 11.84 Mbytes
c_com[1] c_com[2] c_com[3] 
   25.656054    15.983977    7.1658737 
   25.655714    16.018731    7.1312419 
Loop time of 0.032793 on 1 procs for 10 steps with 8887 atoms

Performance: 263470.501 tau/day, 304.943 timesteps/s
100.6% CPU use with 1 MPI tasks x no OpenMP threads

MPI task timing breakdown:
Section |  min time  |  avg time  |  max time  |%varavg| %total
---------------------------------------------------------------
Pair    | 0.015817   | 0.015817   | 0.015817   |   0.0 | 48.23
Bond    | 4.0531e-06 | 4.0531e-06 | 4.0531e-06 |   0.0 |  0.01
Neigh   | 0.015684   | 0.015684   | 0.015684   |   0.0 | 47.83
Comm    | 0.00041699 | 0.00041699 | 0.00041699 |   0.0 |  1.27
Output  | 9.0599e-06 | 9.0599e-06 | 9.0599e-06 |   0.0 |  0.03
Modify  | 0.00037813 | 0.00037813 | 0.00037813 |   0.0 |  1.15
Other   |            | 0.000484   |            |       |  1.48

Nlocal:    8887 ave 8887 max 8887 min
Histogram: 1 0 0 0 0 0 0 0 0 0
Nghost:    4323 ave 4323 max 4323 min
Histogram: 1 0 0 0 0 0 0 0 0 0
Neighs:    185689 ave 185689 max 185689 min
Histogram: 1 0 0 0 0 0 0 0 0 0

Total # of neighbors = 185689
Ave neighs/atom = 20.8945
Ave special neighs/atom = 0.00540115
Neighbor list builds = 1
Dangerous builds = 0
run 10
Per MPI rank memory allocation (min/avg/max) = 11.84 | 11.84 | 11.84 Mbytes
c_com[1] c_com[2] c_com[3] 
   25.655714    16.018731    7.1312419 
   25.663776    16.048266    7.1116511 
Loop time of 0.0324302 on 1 procs for 10 steps with 8887 atoms

Performance: 266418.569 tau/day, 308.355 timesteps/s
98.7% CPU use with 1 MPI tasks x no OpenMP threads

MPI task timing breakdown:
Section |  min time  |  avg time  |  max time  |%varavg| %total
---------------------------------------------------------------
Pair    | 0.015499   | 0.015499   | 0.015499   |   0.0 | 47.79
Bond    | 5.2452e-06 | 5.2452e-06 | 5.2452e-06 |   0.0 |  0.02
Neigh   | 0.015694   | 0.015694   | 0.015694   |   0.0 | 48.39
Comm    | 0.00041819 | 0.00041819 | 0.00041819 |   0.0 |  1.29
Output  | 9.0599e-06 | 9.0599e-06 | 9.0599e-06 |   0.0 |  0.03
Modify  | 0.00035119 | 0.00035119 | 0.00035119 |   0.0 |  1.08
Other   |            | 0.0004532  |            |       |  1.40

Nlocal:    8887 ave 8887 max 8887 min
Histogram: 1 0 0 0 0 0 0 0 0 0
Nghost:    4323 ave 4323 max 4323 min
Histogram: 1 0 0 0 0 0 0 0 0 0
Neighs:    185689 ave 185689 max 185689 min
Histogram: 1 0 0 0 0 0 0 0 0 0

Total # of neighbors = 185689
Ave neighs/atom = 20.8945
Ave special neighs/atom = 0.00540115
Neighbor list builds = 1
Dangerous builds = 0
run 10
Per MPI rank memory allocation (min/avg/max) = 11.84 | 11.84 | 11.84 Mbytes
c_com[1] c_com[2] c_com[3] 
   25.663776    16.048266    7.1116511 
   25.684414    16.049297    7.1056158 
Loop time of 0.032413 on 1 procs for 10 steps with 8887 atoms

Performance: 266559.666 tau/day, 308.518 timesteps/s
98.7% CPU use with 1 MPI tasks x no OpenMP threads

MPI task timing breakdown:
Section |  min time  |  avg time  |  max time  |%varavg| %total
---------------------------------------------------------------
Pair    | 0.015528   | 0.015528   | 0.015528   |   0.0 | 47.91
Bond    | 4.0531e-06 | 4.0531e-06 | 4.0531e-06 |   0.0 |  0.01
Neigh   | 0.015651   | 0.015651   | 0.015651   |   0.0 | 48.29
Comm    | 0.00041652 | 0.00041652 | 0.00041652 |   0.0 |  1.29
Output  | 9.0599e-06 | 9.0599e-06 | 9.0599e-06 |   0.0 |  0.03
Modify  | 0.00034976 | 0.00034976 | 0.00034976 |   0.0 |  1.08
Other   |            | 0.0004547  |            |       |  1.40

Nlocal:    8887 ave 8887 max 8887 min
Histogram: 1 0 0 0 0 0 0 0 0 0
Nghost:    4323 ave 4323 max 4323 min
Histogram: 1 0 0 0 0 0 0 0 0 0
Neighs:    185689 ave 185689 max 185689 min
Histogram: 1 0 0 0 0 0 0 0 0 0

Total # of neighbors = 185689
Ave neighs/atom = 20.8945
Ave special neighs/atom = 0.00540115
Neighbor list builds = 1
Dangerous builds = 0
run 10
Per MPI rank memory allocation (min/avg/max) = 11.84 | 11.84 | 11.84 Mbytes
c_com[1] c_com[2] c_com[3] 
   25.684414    16.049297    7.1056158 
    25.72173    16.051029    7.1086261 
Loop time of 0.0323851 on 1 procs for 10 steps with 8887 atoms

Performance: 266789.267 tau/day, 308.784 timesteps/s
101.9% CPU use with 1 MPI tasks x no OpenMP threads

MPI task timing breakdown:
Section |  min time  |  avg time  |  max time  |%varavg| %total
---------------------------------------------------------------
Pair    | 0.015465   | 0.015465   | 0.015465   |   0.0 | 47.75
Bond    | 4.0531e-06 | 4.0531e-06 | 4.0531e-06 |   0.0 |  0.01
Neigh   | 0.015684   | 0.015684   | 0.015684   |   0.0 | 48.43
Comm    | 0.00041413 | 0.00041413 | 0.00041413 |   0.0 |  1.28
Output  | 8.1062e-06 | 8.1062e-06 | 8.1062e-06 |   0.0 |  0.03
Modify  | 0.00035334 | 0.00035334 | 0.00035334 |   0.0 |  1.09
Other   |            | 0.0004566  |            |       |  1.41

Nlocal:    8887 ave 8887 max 8887 min
Histogram: 1 0 0 0 0 0 0 0 0 0
Nghost:    4323 ave 4323 max 4323 min
Histogram: 1 0 0 0 0 0 0 0 0 0
Neighs:    185689 ave 185689 max 185689 min
Histogram: 1 0 0 0 0 0 0 0 0 0

Total # of neighbors = 185689
Ave neighs/atom = 20.8945
Ave special neighs/atom = 0.00540115
Neighbor list builds = 1
Dangerous builds = 0
run 10
Per MPI rank memory allocation (min/avg/max) = 11.84 | 11.84 | 11.84 Mbytes
c_com[1] c_com[2] c_com[3] 
    25.72173    16.051029    7.1086261 
   25.748329    16.046266     7.127132 
Loop time of 0.032407 on 1 procs for 10 steps with 8887 atoms

Performance: 266608.693 tau/day, 308.575 timesteps/s
98.7% CPU use with 1 MPI tasks x no OpenMP threads

MPI task timing breakdown:
Section |  min time  |  avg time  |  max time  |%varavg| %total
---------------------------------------------------------------
Pair    | 0.015454   | 0.015454   | 0.015454   |   0.0 | 47.69
Bond    | 3.0994e-06 | 3.0994e-06 | 3.0994e-06 |   0.0 |  0.01
Neigh   | 0.015717   | 0.015717   | 0.015717   |   0.0 | 48.50
Comm    | 0.00041842 | 0.00041842 | 0.00041842 |   0.0 |  1.29
Output  | 8.8215e-06 | 8.8215e-06 | 8.8215e-06 |   0.0 |  0.03
Modify  | 0.00034928 | 0.00034928 | 0.00034928 |   0.0 |  1.08
Other   |            | 0.0004563  |            |       |  1.41

Nlocal:    8887 ave 8887 max 8887 min
Histogram: 1 0 0 0 0 0 0 0 0 0
Nghost:    4323 ave 4323 max 4323 min
Histogram: 1 0 0 0 0 0 0 0 0 0
Neighs:    185689 ave 185689 max 185689 min
Histogram: 1 0 0 0 0 0 0 0 0 0

Total # of neighbors = 185689
Ave neighs/atom = 20.8945
Ave special neighs/atom = 0.00540115
Neighbor list builds = 1
Dangerous builds = 0
run 10
Per MPI rank memory allocation (min/avg/max) = 11.84 | 11.84 | 11.84 Mbytes
c_com[1] c_com[2] c_com[3] 
   25.748329    16.046266     7.127132 
   25.748436    16.028965    7.1451618 
Loop time of 0.0324659 on 1 procs for 10 steps with 8887 atoms

Performance: 266125.096 tau/day, 308.015 timesteps/s
98.5% CPU use with 1 MPI tasks x no OpenMP threads

MPI task timing breakdown:
Section |  min time  |  avg time  |  max time  |%varavg| %total
---------------------------------------------------------------
Pair    | 0.015501   | 0.015501   | 0.015501   |   0.0 | 47.74
Bond    | 6.9141e-06 | 6.9141e-06 | 6.9141e-06 |   0.0 |  0.02
Neigh   | 0.015706   | 0.015706   | 0.015706   |   0.0 | 48.38
Comm    | 0.00042081 | 0.00042081 | 0.00042081 |   0.0 |  1.30
Output  | 9.0599e-06 | 9.0599e-06 | 9.0599e-06 |   0.0 |  0.03
Modify  | 0.00036073 | 0.00036073 | 0.00036073 |   0.0 |  1.11
Other   |            | 0.0004618  |            |       |  1.42

Nlocal:    8887 ave 8887 max 8887 min
Histogram: 1 0 0 0 0 0 0 0 0 0
Nghost:    4323 ave 4323 max 4323 min
Histogram: 1 0 0 0 0 0 0 0 0 0
Neighs:    185689 ave 185689 max 185689 min
Histogram: 1 0 0 0 0 0 0 0 0 0

Total # of neighbors = 185689
Ave neighs/atom = 20.8945
Ave special neighs/atom = 0.00540115
Neighbor list builds = 1
Dangerous builds = 0
run 10
Per MPI rank memory allocation (min/avg/max) = 11.84 | 11.84 | 11.84 Mbytes
c_com[1] c_com[2] c_com[3] 
   25.748436    16.028965    7.1451618 
   25.752356    16.011591    7.1578741 
Loop time of 0.0324979 on 1 procs for 10 steps with 8887 atoms

Performance: 265863.473 tau/day, 307.712 timesteps/s
98.5% CPU use with 1 MPI tasks x no OpenMP threads

MPI task timing breakdown:
Section |  min time  |  avg time  |  max time  |%varavg| %total
---------------------------------------------------------------
Pair    | 0.015563   | 0.015563   | 0.015563   |   0.0 | 47.89
Bond    | 2.861e-06  | 2.861e-06  | 2.861e-06  |   0.0 |  0.01
Neigh   | 0.015701   | 0.015701   | 0.015701   |   0.0 | 48.31
Comm    | 0.00041509 | 0.00041509 | 0.00041509 |   0.0 |  1.28
Output  | 9.0599e-06 | 9.0599e-06 | 9.0599e-06 |   0.0 |  0.03
Modify  | 0.00035071 | 0.00035071 | 0.00035071 |   0.0 |  1.08
Other   |            | 0.0004566  |            |       |  1.40

Nlocal:    8887 ave 8887 max 8887 min
Histogram: 1 0 0 0 0 0 0 0 0 0
Nghost:    4323 ave 4323 max 4323 min
Histogram: 1 0 0 0 0 0 0 0 0 0
Neighs:    185689 ave 185689 max 185689 min
Histogram: 1 0 0 0 0 0 0 0 0 0

Total # of neighbors = 185689
Ave neighs/atom = 20.8945
Ave special neighs/atom = 0.00540115
Neighbor list builds = 1
Dangerous builds = 0
run 10
Per MPI rank memory allocation (min/avg/max) = 11.84 | 11.84 | 11.84 Mbytes
c_com[1] c_com[2] c_com[3] 
   25.752356    16.011591    7.1578741 
   25.756952    15.998882    7.1782357 
Loop time of 0.0327349 on 1 procs for 10 steps with 8887 atoms

Performance: 263938.722 tau/day, 305.485 timesteps/s
100.8% CPU use with 1 MPI tasks x no OpenMP threads

MPI task timing breakdown:
Section |  min time  |  avg time  |  max time  |%varavg| %total
---------------------------------------------------------------
Pair    | 0.015667   | 0.015667   | 0.015667   |   0.0 | 47.86
Bond    | 2.861e-06  | 2.861e-06  | 2.861e-06  |   0.0 |  0.01
Neigh   | 0.015804   | 0.015804   | 0.015804   |   0.0 | 48.28
Comm    | 0.00042701 | 0.00042701 | 0.00042701 |   0.0 |  1.30
Output  | 9.0599e-06 | 9.0599e-06 | 9.0599e-06 |   0.0 |  0.03
Modify  | 0.00035548 | 0.00035548 | 0.00035548 |   0.0 |  1.09
Other   |            | 0.0004697  |            |       |  1.43

Nlocal:    8887 ave 8887 max 8887 min
Histogram: 1 0 0 0 0 0 0 0 0 0
Nghost:    4323 ave 4323 max 4323 min
Histogram: 1 0 0 0 0 0 0 0 0 0
Neighs:    185689 ave 185689 max 185689 min
Histogram: 1 0 0 0 0 0 0 0 0 0

Total # of neighbors = 185689
Ave neighs/atom = 20.8945
Ave special neighs/atom = 0.00540115
Neighbor list builds = 1
Dangerous builds = 0
run 10
Per MPI rank memory allocation (min/avg/max) = 11.84 | 11.84 | 11.84 Mbytes
c_com[1] c_com[2] c_com[3] 
   25.756952    15.998882    7.1782357 
   25.748547    15.985204     7.219536 
Loop time of 0.0483999 on 1 procs for 10 steps with 8887 atoms

Performance: 178512.672 tau/day, 206.612 timesteps/s
99.2% CPU use with 1 MPI tasks x no OpenMP threads

MPI task timing breakdown:
Section |  min time  |  avg time  |  max time  |%varavg| %total
---------------------------------------------------------------
Pair    | 0.015538   | 0.015538   | 0.015538   |   0.0 | 32.10
Bond    | 5.0068e-06 | 5.0068e-06 | 5.0068e-06 |   0.0 |  0.01
Neigh   | 0.031358   | 0.031358   | 0.031358   |   0.0 | 64.79
Comm    | 0.00058055 | 0.00058055 | 0.00058055 |   0.0 |  1.20
Output  | 9.0599e-06 | 9.0599e-06 | 9.0599e-06 |   0.0 |  0.02
Modify  | 0.00034833 | 0.00034833 | 0.00034833 |   0.0 |  0.72
Other   |            | 0.000561   |            |       |  1.16

Nlocal:    8887 ave 8887 max 8887 min
Histogram: 1 0 0 0 0 0 0 0 0 0
Nghost:    4323 ave 4323 max 4323 min
Histogram: 1 0 0 0 0 0 0 0 0 0
Neighs:    185689 ave 185689 max 185689 min
Histogram: 1 0 0 0 0 0 0 0 0 0

Total # of neighbors = 185689
Ave neighs/atom = 20.8945
Ave special neighs/atom = 0.00540115
Neighbor list builds = 2
Dangerous builds = 0
run 10
Per MPI rank memory allocation (min/avg/max) = 11.84 | 11.84 | 11.84 Mbytes
c_com[1] c_com[2] c_com[3] 
   25.748547    15.985204     7.219536 
   25.769173    15.969762     7.254698 
Loop time of 0.03246 on 1 procs for 10 steps with 8887 atoms

Performance: 266173.963 tau/day, 308.072 timesteps/s
98.6% CPU use with 1 MPI tasks x no OpenMP threads

MPI task timing breakdown:
Section |  min time  |  avg time  |  max time  |%varavg| %total
---------------------------------------------------------------
Pair    | 0.015559   | 0.015559   | 0.015559   |   0.0 | 47.93
Bond    | 5.0068e-06 | 5.0068e-06 | 5.0068e-06 |   0.0 |  0.02
Neigh   | 0.015669   | 0.015669   | 0.015669   |   0.0 | 48.27
Comm    | 0.0004127  | 0.0004127  | 0.0004127  |   0.0 |  1.27
Output  | 9.0599e-06 | 9.0599e-06 | 9.0599e-06 |   0.0 |  0.03
Modify  | 0.00035191 | 0.00035191 | 0.00035191 |   0.0 |  1.08
Other   |            | 0.0004535  |            |       |  1.40

Nlocal:    8887 ave 8887 max 8887 min
Histogram: 1 0 0 0 0 0 0 0 0 0
Nghost:    4323 ave 4323 max 4323 min
Histogram: 1 0 0 0 0 0 0 0 0 0
Neighs:    185689 ave 185689 max 185689 min
Histogram: 1 0 0 0 0 0 0 0 0 0

Total # of neighbors = 185689
Ave neighs/atom = 20.8945
Ave special neighs/atom = 0.00540115
Neighbor list builds = 1
Dangerous builds = 0
run 10
Per MPI rank memory allocation (min/avg/max) = 11.84 | 11.84 | 11.84 Mbytes
c_com[1] c_com[2] c_com[3] 
   25.769173    15.969762     7.254698 
    25.78823    15.939497    7.2785402 
Loop time of 0.0323758 on 1 procs for 10 steps with 8887 atoms

Performance: 266865.889 tau/day, 308.873 timesteps/s
101.9% CPU use with 1 MPI tasks x no OpenMP threads

MPI task timing breakdown:
Section |  min time  |  avg time  |  max time  |%varavg| %total
---------------------------------------------------------------
Pair    | 0.015454   | 0.015454   | 0.015454   |   0.0 | 47.73
Bond    | 1.9073e-06 | 1.9073e-06 | 1.9073e-06 |   0.0 |  0.01
Neigh   | 0.015668   | 0.015668   | 0.015668   |   0.0 | 48.39
Comm    | 0.00042725 | 0.00042725 | 0.00042725 |   0.0 |  1.32
Output  | 9.0599e-06 | 9.0599e-06 | 9.0599e-06 |   0.0 |  0.03
Modify  | 0.00035572 | 0.00035572 | 0.00035572 |   0.0 |  1.10
Other   |            | 0.0004597  |            |       |  1.42

Nlocal:    8887 ave 8887 max 8887 min
Histogram: 1 0 0 0 0 0 0 0 0 0
Nghost:    4323 ave 4323 max 4323 min
Histogram: 1 0 0 0 0 0 0 0 0 0
Neighs:    185689 ave 185689 max 185689 min
Histogram: 1 0 0 0 0 0 0 0 0 0

Total # of neighbors = 185689
Ave neighs/atom = 20.8945
Ave special neighs/atom = 0.00540115
Neighbor list builds = 1
Dangerous builds = 0
run 10
Per MPI rank memory allocation (min/avg/max) = 11.84 | 11.84 | 11.84 Mbytes
c_com[1] c_com[2] c_com[3] 
    25.78823    15.939497    7.2785402 
   25.808233     15.90387    7.2845301 
Loop time of 0.0325329 on 1 procs for 10 steps with 8887 atoms

Performance: 265577.060 tau/day, 307.381 timesteps/s
101.4% CPU use with 1 MPI tasks x no OpenMP threads

MPI task timing breakdown:
Section |  min time  |  avg time  |  max time  |%varavg| %total
---------------------------------------------------------------
Pair    | 0.0155     | 0.0155     | 0.0155     |   0.0 | 47.64
Bond    | 3.8147e-06 | 3.8147e-06 | 3.8147e-06 |   0.0 |  0.01
Neigh   | 0.015793   | 0.015793   | 0.015793   |   0.0 | 48.54
Comm    | 0.00041819 | 0.00041819 | 0.00041819 |   0.0 |  1.29
Output  | 8.8215e-06 | 8.8215e-06 | 8.8215e-06 |   0.0 |  0.03
Modify  | 0.00035262 | 0.00035262 | 0.00035262 |   0.0 |  1.08
Other   |            | 0.000457   |            |       |  1.40

Nlocal:    8887 ave 8887 max 8887 min
Histogram: 1 0 0 0 0 0 0 0 0 0
Nghost:    4323 ave 4323 max 4323 min
Histogram: 1 0 0 0 0 0 0 0 0 0
Neighs:    185689 ave 185689 max 185689 min
Histogram: 1 0 0 0 0 0 0 0 0 0

Total # of neighbors = 185689
Ave neighs/atom = 20.8945
Ave special neighs/atom = 0.00540115
Neighbor list builds = 1
Dangerous builds = 0
run 10
Per MPI rank memory allocation (min/avg/max) = 11.84 | 11.84 | 11.84 Mbytes
c_com[1] c_com[2] c_com[3] 
   25.808233     15.90387    7.2845301 
    25.81422    15.868892    7.2818935 
Loop time of 0.0328741 on 1 procs for 10 steps with 8887 atoms

Performance: 262820.824 tau/day, 304.191 timesteps/s
100.4% CPU use with 1 MPI tasks x no OpenMP threads

MPI task timing breakdown:
Section |  min time  |  avg time  |  max time  |%varavg| %total
---------------------------------------------------------------
Pair    | 0.015483   | 0.015483   | 0.015483   |   0.0 | 47.10
Bond    | 5.9605e-06 | 5.9605e-06 | 5.9605e-06 |   0.0 |  0.02
Neigh   | 0.016155   | 0.016155   | 0.016155   |   0.0 | 49.14
Comm    | 0.00041366 | 0.00041366 | 0.00041366 |   0.0 |  1.26
Output  | 8.8215e-06 | 8.8215e-06 | 8.8215e-06 |   0.0 |  0.03
Modify  | 0.00035501 | 0.00035501 | 0.00035501 |   0.0 |  1.08
Other   |            | 0.0004528  |            |       |  1.38

Nlocal:    8887 ave 8887 max 8887 min
Histogram: 1 0 0 0 0 0 0 0 0 0
Nghost:    4323 ave 4323 max 4323 min
Histogram: 1 0 0 0 0 0 0 0 0 0
Neighs:    185689 ave 185689 max 185689 min
Histogram: 1 0 0 0 0 0 0 0 0 0

Total # of neighbors = 185689
Ave neighs/atom = 20.8945
Ave special neighs/atom = 0.00540115
Neighbor list builds = 1
Dangerous builds = 0
run 10
Per MPI rank memory allocation (min/avg/max) = 11.84 | 11.84 | 11.84 Mbytes
c_com[1] c_com[2] c_com[3] 
    25.81422    15.868892    7.2818935 
   25.800215    15.858754    7.2719632 
Loop time of 0.034678 on 1 procs for 10 steps with 8887 atoms

Performance: 249149.444 tau/day, 288.367 timesteps/s
98.0% CPU use with 1 MPI tasks x no OpenMP threads

MPI task timing breakdown:
Section |  min time  |  avg time  |  max time  |%varavg| %total
---------------------------------------------------------------
Pair    | 0.01644    | 0.01644    | 0.01644    |   0.0 | 47.41
Bond    | 5.0068e-06 | 5.0068e-06 | 5.0068e-06 |   0.0 |  0.01
Neigh   | 0.016959   | 0.016959   | 0.016959   |   0.0 | 48.90
Comm    | 0.00041914 | 0.00041914 | 0.00041914 |   0.0 |  1.21
Output  | 9.0599e-06 | 9.0599e-06 | 9.0599e-06 |   0.0 |  0.03
Modify  | 0.00035596 | 0.00035596 | 0.00035596 |   0.0 |  1.03
Other   |            | 0.00049    |            |       |  1.41

Nlocal:    8887 ave 8887 max 8887 min
Histogram: 1 0 0 0 0 0 0 0 0 0
Nghost:    4323 ave 4323 max 4323 min
Histogram: 1 0 0 0 0 0 0 0 0 0
Neighs:    185689 ave 185689 max 185689 min
Histogram: 1 0 0 0 0 0 0 0 0 0

Total # of neighbors = 185689
Ave neighs/atom = 20.8945
Ave special neighs/atom = 0.00540115
Neighbor list builds = 1
Dangerous builds = 0
run 10
Per MPI rank memory allocation (min/avg/max) = 11.84 | 11.84 | 11.84 Mbytes
c_com[1] c_com[2] c_com[3] 
   25.800215    15.858754    7.2719632 
   25.782352    15.864884    7.2656014 
Loop time of 0.033777 on 1 procs for 10 steps with 8887 atoms

Performance: 255795.375 tau/day, 296.059 timesteps/s
97.7% CPU use with 1 MPI tasks x no OpenMP threads

MPI task timing breakdown:
Section |  min time  |  avg time  |  max time  |%varavg| %total
---------------------------------------------------------------
Pair    | 0.016597   | 0.016597   | 0.016597   |   0.0 | 49.14
Bond    | 6.6757e-06 | 6.6757e-06 | 6.6757e-06 |   0.0 |  0.02
Neigh   | 0.015896   | 0.015896   | 0.015896   |   0.0 | 47.06
Comm    | 0.00042367 | 0.00042367 | 0.00042367 |   0.0 |  1.25
Output  | 1.0014e-05 | 1.0014e-05 | 1.0014e-05 |   0.0 |  0.03
Modify  | 0.00036168 | 0.00036168 | 0.00036168 |   0.0 |  1.07
Other   |            | 0.0004821  |            |       |  1.43

Nlocal:    8887 ave 8887 max 8887 min
Histogram: 1 0 0 0 0 0 0 0 0 0
Nghost:    4323 ave 4323 max 4323 min
Histogram: 1 0 0 0 0 0 0 0 0 0
Neighs:    185689 ave 185689 max 185689 min
Histogram: 1 0 0 0 0 0 0 0 0 0

Total # of neighbors = 185689
Ave neighs/atom = 20.8945
Ave special neighs/atom = 0.00540115
Neighbor list builds = 1
Dangerous builds = 0
run 10
Per MPI rank memory allocation (min/avg/max) = 11.84 | 11.84 | 11.84 Mbytes
c_com[1] c_com[2] c_com[3] 
   25.782352    15.864884    7.2656014 
   25.752028    15.852736    7.2793401 
Loop time of 0.0332069 on 1 procs for 10 steps with 8887 atoms

Performance: 260186.578 tau/day, 301.142 timesteps/s
99.4% CPU use with 1 MPI tasks x no OpenMP threads

MPI task timing breakdown:
Section |  min time  |  avg time  |  max time  |%varavg| %total
---------------------------------------------------------------
Pair    | 0.016106   | 0.016106   | 0.016106   |   0.0 | 48.50
Bond    | 1.9073e-06 | 1.9073e-06 | 1.9073e-06 |   0.0 |  0.01
Neigh   | 0.015807   | 0.015807   | 0.015807   |   0.0 | 47.60
Comm    | 0.00042081 | 0.00042081 | 0.00042081 |   0.0 |  1.27
Output  | 1.0014e-05 | 1.0014e-05 | 1.0014e-05 |   0.0 |  0.03
Modify  | 0.00038242 | 0.00038242 | 0.00038242 |   0.0 |  1.15
Other   |            | 0.0004787  |            |       |  1.44

Nlocal:    8887 ave 8887 max 8887 min
Histogram: 1 0 0 0 0 0 0 0 0 0
Nghost:    4323 ave 4323 max 4323 min
Histogram: 1 0 0 0 0 0 0 0 0 0
Neighs:    185689 ave 185689 max 185689 min
Histogram: 1 0 0 0 0 0 0 0 0 0

Total # of neighbors = 185689
Ave neighs/atom = 20.8945
Ave special neighs/atom = 0.00540115
Neighbor list builds = 1
Dangerous builds = 0
run 10
Per MPI rank memory allocation (min/avg/max) = 11.84 | 11.84 | 11.84 Mbytes
c_com[1] c_com[2] c_com[3] 
   25.752028    15.852736    7.2793401 
   25.727775    15.847003    7.3096549 
Loop time of 0.0341599 on 1 procs for 10 steps with 8887 atoms

Performance: 252928.150 tau/day, 292.741 timesteps/s
96.6% CPU use with 1 MPI tasks x no OpenMP threads

MPI task timing breakdown:
Section |  min time  |  avg time  |  max time  |%varavg| %total
---------------------------------------------------------------
Pair    | 0.01634    | 0.01634    | 0.01634    |   0.0 | 47.83
Bond    | 3.8147e-06 | 3.8147e-06 | 3.8147e-06 |   0.0 |  0.01
Neigh   | 0.016513   | 0.016513   | 0.016513   |   0.0 | 48.34
Comm    | 0.00045705 | 0.00045705 | 0.00045705 |   0.0 |  1.34
Output  | 1.0014e-05 | 1.0014e-05 | 1.0014e-05 |   0.0 |  0.03
Modify  | 0.00036216 | 0.00036216 | 0.00036216 |   0.0 |  1.06
Other   |            | 0.000474   |            |       |  1.39

Nlocal:    8887 ave 8887 max 8887 min
Histogram: 1 0 0 0 0 0 0 0 0 0
Nghost:    4323 ave 4323 max 4323 min
Histogram: 1 0 0 0 0 0 0 0 0 0
Neighs:    185689 ave 185689 max 185689 min
Histogram: 1 0 0 0 0 0 0 0 0 0

Total # of neighbors = 185689
Ave neighs/atom = 20.8945
Ave special neighs/atom = 0.00540115
Neighbor list builds = 1
Dangerous builds = 0
run 10
Per MPI rank memory allocation (min/avg/max) = 11.84 | 11.84 | 11.84 Mbytes
c_com[1] c_com[2] c_com[3] 
   25.727775    15.847003    7.3096549 
   25.707327    15.835545    7.3456141 
Loop time of 0.033181 on 1 procs for 10 steps with 8887 atoms

Performance: 260390.358 tau/day, 301.378 timesteps/s
99.4% CPU use with 1 MPI tasks x no OpenMP threads

MPI task timing breakdown:
Section |  min time  |  avg time  |  max time  |%varavg| %total
---------------------------------------------------------------
Pair    | 0.015877   | 0.015877   | 0.015877   |   0.0 | 47.85
Bond    | 4.2915e-06 | 4.2915e-06 | 4.2915e-06 |   0.0 |  0.01
Neigh   | 0.016053   | 0.016053   | 0.016053   |   0.0 | 48.38
Comm    | 0.00042462 | 0.00042462 | 0.00042462 |   0.0 |  1.28
Output  | 1.0014e-05 | 1.0014e-05 | 1.0014e-05 |   0.0 |  0.03
Modify  | 0.00035501 | 0.00035501 | 0.00035501 |   0.0 |  1.07
Other   |            | 0.0004568  |            |       |  1.38

Nlocal:    8887 ave 8887 max 8887 min
Histogram: 1 0 0 0 0 0 0 0 0 0
Nghost:    4323 ave 4323 max 4323 min
Histogram: 1 0 0 0 0 0 0 0 0 0
Neighs:    185689 ave 185689 max 185689 min
Histogram: 1 0 0 0 0 0 0 0 0 0

Total # of neighbors = 185689
Ave neighs/atom = 20.8945
Ave special neighs/atom = 0.00540115
Neighbor list builds = 1
Dangerous builds = 0
run 10
Per MPI rank memory allocation (min/avg/max) = 11.84 | 11.84 | 11.84 Mbytes
c_com[1] c_com[2] c_com[3] 
   25.707327    15.835545    7.3456141 
      25.672    15.826532    7.3887601 
Loop time of 0.033088 on 1 procs for 10 steps with 8887 atoms

Performance: 261122.103 tau/day, 302.225 timesteps/s
99.7% CPU use with 1 MPI tasks x no OpenMP threads

MPI task timing breakdown:
Section |  min time  |  avg time  |  max time  |%varavg| %total
---------------------------------------------------------------
Pair    | 0.015834   | 0.015834   | 0.015834   |   0.0 | 47.85
Bond    | 5.0068e-06 | 5.0068e-06 | 5.0068e-06 |   0.0 |  0.02
Neigh   | 0.015999   | 0.015999   | 0.015999   |   0.0 | 48.35
Comm    | 0.00041699 | 0.00041699 | 0.00041699 |   0.0 |  1.26
Output  | 9.0599e-06 | 9.0599e-06 | 9.0599e-06 |   0.0 |  0.03
Modify  | 0.00035477 | 0.00035477 | 0.00035477 |   0.0 |  1.07
Other   |            | 0.0004694  |            |       |  1.42

Nlocal:    8887 ave 8887 max 8887 min
Histogram: 1 0 0 0 0 0 0 0 0 0
Nghost:    4323 ave 4323 max 4323 min
Histogram: 1 0 0 0 0 0 0 0 0 0
Neighs:    185689 ave 185689 max 185689 min
Histogram: 1 0 0 0 0 0 0 0 0 0

Total # of neighbors = 185689
Ave neighs/atom = 20.8945
Ave special neighs/atom = 0.00540115
Neighbor list builds = 1
Dangerous builds = 0
run 10
Per MPI rank memory allocation (min/avg/max) = 11.84 | 11.84 | 11.84 Mbytes
c_com[1] c_com[2] c_com[3] 
      25.672    15.826532    7.3887601 
   25.626535    15.816779    7.4373185 
Loop time of 0.0332391 on 1 procs for 10 steps with 8887 atoms

Performance: 259934.631 tau/day, 300.850 timesteps/s
99.3% CPU use with 1 MPI tasks x no OpenMP threads

MPI task timing breakdown:
Section |  min time  |  avg time  |  max time  |%varavg| %total
---------------------------------------------------------------
Pair    | 0.015919   | 0.015919   | 0.015919   |   0.0 | 47.89
Bond    | 3.8147e-06 | 3.8147e-06 | 3.8147e-06 |   0.0 |  0.01
Neigh   | 0.016073   | 0.016073   | 0.016073   |   0.0 | 48.36
Comm    | 0.00042129 | 0.00042129 | 0.00042129 |   0.0 |  1.27
Output  | 9.0599e-06 | 9.0599e-06 | 9.0599e-06 |   0.0 |  0.03
Modify  | 0.00035286 | 0.00035286 | 0.00035286 |   0.0 |  1.06
Other   |            | 0.0004601  |            |       |  1.38

Nlocal:    8887 ave 8887 max 8887 min
Histogram: 1 0 0 0 0 0 0 0 0 0
Nghost:    4323 ave 4323 max 4323 min
Histogram: 1 0 0 0 0 0 0 0 0 0
Neighs:    185689 ave 185689 max 185689 min
Histogram: 1 0 0 0 0 0 0 0 0 0

Total # of neighbors = 185689
Ave neighs/atom = 20.8945
Ave special neighs/atom = 0.00540115
Neighbor list builds = 1
Dangerous builds = 0
run 10
Per MPI rank memory allocation (min/avg/max) = 11.84 | 11.84 | 11.84 Mbytes
c_com[1] c_com[2] c_com[3] 
   25.626535    15.816779    7.4373185 
   25.571807    15.799437    7.4934686 
Loop time of 0.0350549 on 1 procs for 10 steps with 8887 atoms

Performance: 246470.381 tau/day, 285.267 timesteps/s
99.8% CPU use with 1 MPI tasks x no OpenMP threads

MPI task timing breakdown:
Section |  min time  |  avg time  |  max time  |%varavg| %total
---------------------------------------------------------------
Pair    | 0.016874   | 0.016874   | 0.016874   |   0.0 | 48.14
Bond    | 3.8147e-06 | 3.8147e-06 | 3.8147e-06 |   0.0 |  0.01
Neigh   | 0.016859   | 0.016859   | 0.016859   |   0.0 | 48.09
Comm    | 0.00045085 | 0.00045085 | 0.00045085 |   0.0 |  1.29
Output  | 1.0014e-05 | 1.0014e-05 | 1.0014e-05 |   0.0 |  0.03
Modify  | 0.00038195 | 0.00038195 | 0.00038195 |   0.0 |  1.09
Other   |            | 0.0004749  |            |       |  1.35

Nlocal:    8887 ave 8887 max 8887 min
Histogram: 1 0 0 0 0 0 0 0 0 0
Nghost:    4323 ave 4323 max 4323 min
Histogram: 1 0 0 0 0 0 0 0 0 0
Neighs:    185689 ave 185689 max 185689 min
Histogram: 1 0 0 0 0 0 0 0 0 0

Total # of neighbors = 185689
Ave neighs/atom = 20.8945
Ave special neighs/atom = 0.00540115
Neighbor list builds = 1
Dangerous builds = 0
run 10
Per MPI rank memory allocation (min/avg/max) = 11.84 | 11.84 | 11.84 Mbytes
c_com[1] c_com[2] c_com[3] 
   25.571807    15.799437    7.4934686 
   25.522523    15.796601    7.5322967 
Loop time of 0.0344729 on 1 procs for 10 steps with 8887 atoms

Performance: 250631.348 tau/day, 290.083 timesteps/s
95.7% CPU use with 1 MPI tasks x no OpenMP threads

MPI task timing breakdown:
Section |  min time  |  avg time  |  max time  |%varavg| %total
---------------------------------------------------------------
Pair    | 0.016486   | 0.016486   | 0.016486   |   0.0 | 47.82
Bond    | 3.8147e-06 | 3.8147e-06 | 3.8147e-06 |   0.0 |  0.01
Neigh   | 0.016645   | 0.016645   | 0.016645   |   0.0 | 48.28
Comm    | 0.00046968 | 0.00046968 | 0.00046968 |   0.0 |  1.36
Output  | 9.0599e-06 | 9.0599e-06 | 9.0599e-06 |   0.0 |  0.03
Modify  | 0.00037622 | 0.00037622 | 0.00037622 |   0.0 |  1.09
Other   |            | 0.0004828  |            |       |  1.40

Nlocal:    8887 ave 8887 max 8887 min
Histogram: 1 0 0 0 0 0 0 0 0 0
Nghost:    4323 ave 4323 max 4323 min
Histogram: 1 0 0 0 0 0 0 0 0 0
Neighs:    185689 ave 185689 max 185689 min
Histogram: 1 0 0 0 0 0 0 0 0 0

Total # of neighbors = 185689
Ave neighs/atom = 20.8945
Ave special neighs/atom = 0.00540115
Neighbor list builds = 1
Dangerous builds = 0
run 10
Per MPI rank memory allocation (min/avg/max) = 11.84 | 11.84 | 11.84 Mbytes
c_com[1] c_com[2] c_com[3] 
   25.522523    15.796601    7.5322967 
   25.452304     15.77311    7.5564401 
Loop time of 0.032645 on 1 procs for 10 steps with 8887 atoms

Performance: 264665.444 tau/day, 306.326 timesteps/s
101.1% CPU use with 1 MPI tasks x no OpenMP threads

MPI task timing breakdown:
Section |  min time  |  avg time  |  max time  |%varavg| %total
---------------------------------------------------------------
Pair    | 0.015596   | 0.015596   | 0.015596   |   0.0 | 47.77
Bond    | 1.9073e-06 | 1.9073e-06 | 1.9073e-06 |   0.0 |  0.01
Neigh   | 0.015771   | 0.015771   | 0.015771   |   0.0 | 48.31
Comm    | 0.00044298 | 0.00044298 | 0.00044298 |   0.0 |  1.36
Output  | 1.0014e-05 | 1.0014e-05 | 1.0014e-05 |   0.0 |  0.03
Modify  | 0.00035119 | 0.00035119 | 0.00035119 |   0.0 |  1.08
Other   |            | 0.0004721  |            |       |  1.45

Nlocal:    8887 ave 8887 max 8887 min
Histogram: 1 0 0 0 0 0 0 0 0 0
Nghost:    4323 ave 4323 max 4323 min
Histogram: 1 0 0 0 0 0 0 0 0 0
Neighs:    185689 ave 185689 max 185689 min
Histogram: 1 0 0 0 0 0 0 0 0 0

Total # of neighbors = 185689
Ave neighs/atom = 20.8945
Ave special neighs/atom = 0.00540115
Neighbor list builds = 1
Dangerous builds = 0
run 10
Per MPI rank memory allocation (min/avg/max) = 11.84 | 11.84 | 11.84 Mbytes
c_com[1] c_com[2] c_com[3] 
   25.452304     15.77311    7.5564401 
   25.382034    15.746792    7.5766449 
Loop time of 0.0486269 on 1 procs for 10 steps with 8887 atoms

Performance: 177679.434 tau/day, 205.647 timesteps/s
98.7% CPU use with 1 MPI tasks x no OpenMP threads

MPI task timing breakdown:
Section |  min time  |  avg time  |  max time  |%varavg| %total
---------------------------------------------------------------
Pair    | 0.015561   | 0.015561   | 0.015561   |   0.0 | 32.00
Bond    | 2.861e-06  | 2.861e-06  | 2.861e-06  |   0.0 |  0.01
Neigh   | 0.031559   | 0.031559   | 0.031559   |   0.0 | 64.90
Comm    | 0.00058532 | 0.00058532 | 0.00058532 |   0.0 |  1.20
Output  | 9.0599e-06 | 9.0599e-06 | 9.0599e-06 |   0.0 |  0.02
Modify  | 0.00034928 | 0.00034928 | 0.00034928 |   0.0 |  0.72
Other   |            | 0.0005608  |            |       |  1.15

Nlocal:    8887 ave 8887 max 8887 min
Histogram: 1 0 0 0 0 0 0 0 0 0
Nghost:    4323 ave 4323 max 4323 min
Histogram: 1 0 0 0 0 0 0 0 0 0
Neighs:    185689 ave 185689 max 185689 min
Histogram: 1 0 0 0 0 0 0 0 0 0

Total # of neighbors = 185689
Ave neighs/atom = 20.8945
Ave special neighs/atom = 0.00540115
Neighbor list builds = 2
Dangerous builds = 0
run 10
Per MPI rank memory allocation (min/avg/max) = 11.84 | 11.84 | 11.84 Mbytes
c_com[1] c_com[2] c_com[3] 
   25.382034    15.746792    7.5766449 
   25.306603    15.711456    7.5991383 
Loop time of 0.0327351 on 1 procs for 10 steps with 8887 atoms

Performance: 263936.800 tau/day, 305.482 timesteps/s
100.8% CPU use with 1 MPI tasks x no OpenMP threads

MPI task timing breakdown:
Section |  min time  |  avg time  |  max time  |%varavg| %total
---------------------------------------------------------------
Pair    | 0.015682   | 0.015682   | 0.015682   |   0.0 | 47.91
Bond    | 3.8147e-06 | 3.8147e-06 | 3.8147e-06 |   0.0 |  0.01
Neigh   | 0.015807   | 0.015807   | 0.015807   |   0.0 | 48.29
Comm    | 0.00042152 | 0.00042152 | 0.00042152 |   0.0 |  1.29
Output  | 9.0599e-06 | 9.0599e-06 | 9.0599e-06 |   0.0 |  0.03
Modify  | 0.00035238 | 0.00035238 | 0.00035238 |   0.0 |  1.08
Other   |            | 0.0004594  |            |       |  1.40

Nlocal:    8887 ave 8887 max 8887 min
Histogram: 1 0 0 0 0 0 0 0 0 0
Nghost:    4323 ave 4323 max 4323 min
Histogram: 1 0 0 0 0 0 0 0 0 0
Neighs:    185689 ave 185689 max 185689 min
Histogram: 1 0 0 0 0 0 0 0 0 0

Total # of neighbors = 185689
Ave neighs/atom = 20.8945
Ave special neighs/atom = 0.00540115
Neighbor list builds = 1
Dangerous builds = 0
run 10
Per MPI rank memory allocation (min/avg/max) = 11.84 | 11.84 | 11.84 Mbytes
c_com[1] c_com[2] c_com[3] 
   25.306603    15.711456    7.5991383 
   25.235781    15.672056    7.6071686 
Loop time of 0.03317 on 1 procs for 10 steps with 8887 atoms

Performance: 260476.453 tau/day, 301.477 timesteps/s
99.5% CPU use with 1 MPI tasks x no OpenMP threads

MPI task timing breakdown:
Section |  min time  |  avg time  |  max time  |%varavg| %total
---------------------------------------------------------------
Pair    | 0.016058   | 0.016058   | 0.016058   |   0.0 | 48.41
Bond    | 3.0994e-06 | 3.0994e-06 | 3.0994e-06 |   0.0 |  0.01
Neigh   | 0.015832   | 0.015832   | 0.015832   |   0.0 | 47.73
Comm    | 0.00043201 | 0.00043201 | 0.00043201 |   0.0 |  1.30
Output  | 1.0014e-05 | 1.0014e-05 | 1.0014e-05 |   0.0 |  0.03
Modify  | 0.0003562  | 0.0003562  | 0.0003562  |   0.0 |  1.07
Other   |            | 0.000479   |            |       |  1.44

Nlocal:    8887 ave 8887 max 8887 min
Histogram: 1 0 0 0 0 0 0 0 0 0
Nghost:    4323 ave 4323 max 4323 min
Histogram: 1 0 0 0 0 0 0 0 0 0
Neighs:    185689 ave 185689 max 185689 min
Histogram: 1 0 0 0 0 0 0 0 0 0

Total # of neighbors = 185689
Ave neighs/atom = 20.8945
Ave special neighs/atom = 0.00540115
Neighbor list builds = 1
Dangerous builds = 0
run 10
Per MPI rank memory allocation (min/avg/max) = 11.84 | 11.84 | 11.84 Mbytes
c_com[1] c_com[2] c_com[3] 
   25.235781    15.672056    7.6071686 
   25.164348    15.636944    7.6068188 
Loop time of 0.0334079 on 1 procs for 10 steps with 8887 atoms

Performance: 258621.258 tau/day, 299.330 timesteps/s
98.8% CPU use with 1 MPI tasks x no OpenMP threads

MPI task timing breakdown:
Section |  min time  |  avg time  |  max time  |%varavg| %total
---------------------------------------------------------------
Pair    | 0.015938   | 0.015938   | 0.015938   |   0.0 | 47.71
Bond    | 6.9141e-06 | 6.9141e-06 | 6.9141e-06 |   0.0 |  0.02
Neigh   | 0.016146   | 0.016146   | 0.016146   |   0.0 | 48.33
Comm    | 0.00043154 | 0.00043154 | 0.00043154 |   0.0 |  1.29
Output  | 7.8678e-06 | 7.8678e-06 | 7.8678e-06 |   0.0 |  0.02
Modify  | 0.00037599 | 0.00037599 | 0.00037599 |   0.0 |  1.13
Other   |            | 0.0005014  |            |       |  1.50

Nlocal:    8887 ave 8887 max 8887 min
Histogram: 1 0 0 0 0 0 0 0 0 0
Nghost:    4323 ave 4323 max 4323 min
Histogram: 1 0 0 0 0 0 0 0 0 0
Neighs:    185689 ave 185689 max 185689 min
Histogram: 1 0 0 0 0 0 0 0 0 0

Total # of neighbors = 185689
Ave neighs/atom = 20.8945
Ave special neighs/atom = 0.00540115
Neighbor list builds = 1
Dangerous builds = 0
run 10
Per MPI rank memory allocation (min/avg/max) = 11.84 | 11.84 | 11.84 Mbytes
c_com[1] c_com[2] c_com[3] 
   25.164348    15.636944    7.6068188 
   25.111329     15.61925    7.6218063 
Loop time of 0.034152 on 1 procs for 10 steps with 8887 atoms

Performance: 252986.419 tau/day, 292.808 timesteps/s
99.5% CPU use with 1 MPI tasks x no OpenMP threads

MPI task timing breakdown:
Section |  min time  |  avg time  |  max time  |%varavg| %total
---------------------------------------------------------------
Pair    | 0.016515   | 0.016515   | 0.016515   |   0.0 | 48.36
Bond    | 6.6757e-06 | 6.6757e-06 | 6.6757e-06 |   0.0 |  0.02
Neigh   | 0.016261   | 0.016261   | 0.016261   |   0.0 | 47.61
Comm    | 0.00044584 | 0.00044584 | 0.00044584 |   0.0 |  1.31
Output  | 9.0599e-06 | 9.0599e-06 | 9.0599e-06 |   0.0 |  0.03
Modify  | 0.00040817 | 0.00040817 | 0.00040817 |   0.0 |  1.20
Other   |            | 0.0005064  |            |       |  1.48

Nlocal:    8887 ave 8887 max 8887 min
Histogram: 1 0 0 0 0 0 0 0 0 0
Nghost:    4323 ave 4323 max 4323 min
Histogram: 1 0 0 0 0 0 0 0 0 0
Neighs:    185689 ave 185689 max 185689 min
Histogram: 1 0 0 0 0 0 0 0 0 0

Total # of neighbors = 185689
Ave neighs/atom = 20.8945
Ave special neighs/atom = 0.00540115
Neighbor list builds = 1
Dangerous builds = 0
run 10
Per MPI rank memory allocation (min/avg/max) = 11.84 | 11.84 | 11.84 Mbytes
c_com[1] c_com[2] c_com[3] 
   25.111329     15.61925    7.6218063 
   25.060513    15.606769    7.6309204 
Loop time of 0.0326769 on 1 procs for 10 steps with 8887 atoms

Performance: 264406.682 tau/day, 306.026 timesteps/s
101.0% CPU use with 1 MPI tasks x no OpenMP threads

MPI task timing breakdown:
Section |  min time  |  avg time  |  max time  |%varavg| %total
---------------------------------------------------------------
Pair    | 0.015613   | 0.015613   | 0.015613   |   0.0 | 47.78
Bond    | 4.2915e-06 | 4.2915e-06 | 4.2915e-06 |   0.0 |  0.01
Neigh   | 0.015822   | 0.015822   | 0.015822   |   0.0 | 48.42
Comm    | 0.00041723 | 0.00041723 | 0.00041723 |   0.0 |  1.28
Output  | 9.0599e-06 | 9.0599e-06 | 9.0599e-06 |   0.0 |  0.03
Modify  | 0.00035429 | 0.00035429 | 0.00035429 |   0.0 |  1.08
Other   |            | 0.000457   |            |       |  1.40

Nlocal:    8887 ave 8887 max 8887 min
Histogram: 1 0 0 0 0 0 0 0 0 0
Nghost:    4323 ave 4323 max 4323 min
Histogram: 1 0 0 0 0 0 0 0 0 0
Neighs:    185689 ave 185689 max 185689 min
Histogram: 1 0 0 0 0 0 0 0 0 0

Total # of neighbors = 185689
Ave neighs/atom = 20.8945
Ave special neighs/atom = 0.00540115
Neighbor list builds = 1
Dangerous builds = 0
run 10
Per MPI rank memory allocation (min/avg/max) = 11.84 | 11.84 | 11.84 Mbytes
c_com[1] c_com[2] c_com[3] 
   25.060513    15.606769    7.6309204 
    25.01841    15.588615    7.6651501 
Loop time of 0.032943 on 1 procs for 10 steps with 8887 atoms

Performance: 262271.113 tau/day, 303.555 timesteps/s
100.2% CPU use with 1 MPI tasks x no OpenMP threads

MPI task timing breakdown:
Section |  min time  |  avg time  |  max time  |%varavg| %total
---------------------------------------------------------------
Pair    | 0.015486   | 0.015486   | 0.015486   |   0.0 | 47.01
Bond    | 5.0068e-06 | 5.0068e-06 | 5.0068e-06 |   0.0 |  0.02
Neigh   | 0.016209   | 0.016209   | 0.016209   |   0.0 | 49.20
Comm    | 0.00042057 | 0.00042057 | 0.00042057 |   0.0 |  1.28
Output  | 9.0599e-06 | 9.0599e-06 | 9.0599e-06 |   0.0 |  0.03
Modify  | 0.00035191 | 0.00035191 | 0.00035191 |   0.0 |  1.07
Other   |            | 0.0004611  |            |       |  1.40

Nlocal:    8887 ave 8887 max 8887 min
Histogram: 1 0 0 0 0 0 0 0 0 0
Nghost:    4323 ave 4323 max 4323 min
Histogram: 1 0 0 0 0 0 0 0 0 0
Neighs:    185689 ave 185689 max 185689 min
Histogram: 1 0 0 0 0 0 0 0 0 0

Total # of neighbors = 185689
Ave neighs/atom = 20.8945
Ave special neighs/atom = 0.00540115
Neighbor list builds = 1
Dangerous builds = 0
run 10
Per MPI rank memory allocation (min/avg/max) = 11.84 | 11.84 | 11.84 Mbytes
c_com[1] c_com[2] c_com[3] 
    25.01841    15.588615    7.6651501 
    24.98001    15.550369    7.6754306 
Loop time of 0.0329881 on 1 procs for 10 steps with 8887 atoms

Performance: 261912.856 tau/day, 303.140 timesteps/s
100.0% CPU use with 1 MPI tasks x no OpenMP threads

MPI task timing breakdown:
Section |  min time  |  avg time  |  max time  |%varavg| %total
---------------------------------------------------------------
Pair    | 0.015811   | 0.015811   | 0.015811   |   0.0 | 47.93
Bond    | 5.722e-06  | 5.722e-06  | 5.722e-06  |   0.0 |  0.02
Neigh   | 0.01593    | 0.01593    | 0.01593    |   0.0 | 48.29
Comm    | 0.0004189  | 0.0004189  | 0.0004189  |   0.0 |  1.27
Output  | 9.0599e-06 | 9.0599e-06 | 9.0599e-06 |   0.0 |  0.03
Modify  | 0.0003593  | 0.0003593  | 0.0003593  |   0.0 |  1.09
Other   |            | 0.0004542  |            |       |  1.38

Nlocal:    8887 ave 8887 max 8887 min
Histogram: 1 0 0 0 0 0 0 0 0 0
Nghost:    4323 ave 4323 max 4323 min
Histogram: 1 0 0 0 0 0 0 0 0 0
Neighs:    185689 ave 185689 max 185689 min
Histogram: 1 0 0 0 0 0 0 0 0 0

Total # of neighbors = 185689
Ave neighs/atom = 20.8945
Ave special neighs/atom = 0.00540115
Neighbor list builds = 1
Dangerous builds = 0
run 10
Per MPI rank memory allocation (min/avg/max) = 11.84 | 11.84 | 11.84 Mbytes
c_com[1] c_com[2] c_com[3] 
    24.98001    15.550369    7.6754306 
   24.948291    15.513103    7.6738259 
Loop time of 0.0342631 on 1 procs for 10 steps with 8887 atoms

Performance: 252166.074 tau/day, 291.859 timesteps/s
99.2% CPU use with 1 MPI tasks x no OpenMP threads

MPI task timing breakdown:
Section |  min time  |  avg time  |  max time  |%varavg| %total
---------------------------------------------------------------
Pair    | 0.016181   | 0.016181   | 0.016181   |   0.0 | 47.22
Bond    | 4.0531e-06 | 4.0531e-06 | 4.0531e-06 |   0.0 |  0.01
Neigh   | 0.01677    | 0.01677    | 0.01677    |   0.0 | 48.94
Comm    | 0.00043416 | 0.00043416 | 0.00043416 |   0.0 |  1.27
Output  | 9.0599e-06 | 9.0599e-06 | 9.0599e-06 |   0.0 |  0.03
Modify  | 0.00037098 | 0.00037098 | 0.00037098 |   0.0 |  1.08
Other   |            | 0.0004945  |            |       |  1.44

Nlocal:    8887 ave 8887 max 8887 min
Histogram: 1 0 0 0 0 0 0 0 0 0
Nghost:    4323 ave 4323 max 4323 min
Histogram: 1 0 0 0 0 0 0 0 0 0
Neighs:    185689 ave 185689 max 185689 min
Histogram: 1 0 0 0 0 0 0 0 0 0

Total # of neighbors = 185689
Ave neighs/atom = 20.8945
Ave special neighs/atom = 0.00540115
Neighbor list builds = 1
Dangerous builds = 0
run 10
Per MPI rank memory allocation (min/avg/max) = 11.84 | 11.84 | 11.84 Mbytes
c_com[1] c_com[2] c_com[3] 
   24.948291    15.513103    7.6738259 
   24.912841    15.488201    7.6729854 
Loop time of 0.033334 on 1 procs for 10 steps with 8887 atoms

Performance: 259194.685 tau/day, 299.994 timesteps/s
99.0% CPU use with 1 MPI tasks x no OpenMP threads

MPI task timing breakdown:
Section |  min time  |  avg time  |  max time  |%varavg| %total
---------------------------------------------------------------
Pair    | 0.015956   | 0.015956   | 0.015956   |   0.0 | 47.87
Bond    | 1.2875e-05 | 1.2875e-05 | 1.2875e-05 |   0.0 |  0.04
Neigh   | 0.016119   | 0.016119   | 0.016119   |   0.0 | 48.36
Comm    | 0.00042105 | 0.00042105 | 0.00042105 |   0.0 |  1.26
Output  | 1.0014e-05 | 1.0014e-05 | 1.0014e-05 |   0.0 |  0.03
Modify  | 0.00034666 | 0.00034666 | 0.00034666 |   0.0 |  1.04
Other   |            | 0.0004683  |            |       |  1.40

Nlocal:    8887 ave 8887 max 8887 min
Histogram: 1 0 0 0 0 0 0 0 0 0
Nghost:    4323 ave 4323 max 4323 min
Histogram: 1 0 0 0 0 0 0 0 0 0
Neighs:    185689 ave 185689 max 185689 min
Histogram: 1 0 0 0 0 0 0 0 0 0

Total # of neighbors = 185689
Ave neighs/atom = 20.8945
Ave special neighs/atom = 0.00540115
Neighbor list builds = 1
Dangerous builds = 0
run 10
Per MPI rank memory allocation (min/avg/max) = 11.84 | 11.84 | 11.84 Mbytes
c_com[1] c_com[2] c_com[3] 
   24.912841    15.488201    7.6729854 
   24.885213    15.469307    7.6757093 
Loop time of 0.033807 on 1 procs for 10 steps with 8887 atoms

Performance: 255568.077 tau/day, 295.796 timesteps/s
103.5% CPU use with 1 MPI tasks x no OpenMP threads

MPI task timing breakdown:
Section |  min time  |  avg time  |  max time  |%varavg| %total
---------------------------------------------------------------
Pair    | 0.016409   | 0.016409   | 0.016409   |   0.0 | 48.54
Bond    | 5.4836e-06 | 5.4836e-06 | 5.4836e-06 |   0.0 |  0.02
Neigh   | 0.016142   | 0.016142   | 0.016142   |   0.0 | 47.75
Comm    | 0.00042748 | 0.00042748 | 0.00042748 |   0.0 |  1.26
Output  | 1.0014e-05 | 1.0014e-05 | 1.0014e-05 |   0.0 |  0.03
Modify  | 0.00035429 | 0.00035429 | 0.00035429 |   0.0 |  1.05
Other   |            | 0.0004592  |            |       |  1.36

Nlocal:    8887 ave 8887 max 8887 min
Histogram: 1 0 0 0 0 0 0 0 0 0
Nghost:    4323 ave 4323 max 4323 min
Histogram: 1 0 0 0 0 0 0 0 0 0
Neighs:    185689 ave 185689 max 185689 min
Histogram: 1 0 0 0 0 0 0 0 0 0

Total # of neighbors = 185689
Ave neighs/atom = 20.8945
Ave special neighs/atom = 0.00540115
Neighbor list builds = 1
Dangerous builds = 0
run 10
Per MPI rank memory allocation (min/avg/max) = 11.84 | 11.84 | 11.84 Mbytes
c_com[1] c_com[2] c_com[3] 
   24.885213    15.469307    7.6757093 
   24.849861    15.426449    7.6853229 
Loop time of 0.0349529 on 1 procs for 10 steps with 8887 atoms

Performance: 247189.939 tau/day, 286.099 timesteps/s
100.1% CPU use with 1 MPI tasks x no OpenMP threads

MPI task timing breakdown:
Section |  min time  |  avg time  |  max time  |%varavg| %total
---------------------------------------------------------------
Pair    | 0.016707   | 0.016707   | 0.016707   |   0.0 | 47.80
Bond    | 7.1526e-06 | 7.1526e-06 | 7.1526e-06 |   0.0 |  0.02
Neigh   | 0.01686    | 0.01686    | 0.01686    |   0.0 | 48.24
Comm    | 0.00045276 | 0.00045276 | 0.00045276 |   0.0 |  1.30
Output  | 1.0014e-05 | 1.0014e-05 | 1.0014e-05 |   0.0 |  0.03
Modify  | 0.00039506 | 0.00039506 | 0.00039506 |   0.0 |  1.13
Other   |            | 0.0005209  |            |       |  1.49

Nlocal:    8887 ave 8887 max 8887 min
Histogram: 1 0 0 0 0 0 0 0 0 0
Nghost:    4323 ave 4323 max 4323 min
Histogram: 1 0 0 0 0 0 0 0 0 0
Neighs:    185689 ave 185689 max 185689 min
Histogram: 1 0 0 0 0 0 0 0 0 0

Total # of neighbors = 185689
Ave neighs/atom = 20.8945
Ave special neighs/atom = 0.00540115
Neighbor list builds = 1
Dangerous builds = 0
run 10
Per MPI rank memory allocation (min/avg/max) = 11.84 | 11.84 | 11.84 Mbytes
c_com[1] c_com[2] c_com[3] 
   24.849861    15.426449    7.6853229 
   24.796962    15.377955    7.7074626 
Loop time of 0.033875 on 1 procs for 10 steps with 8887 atoms

Performance: 255055.437 tau/day, 295.203 timesteps/s
97.4% CPU use with 1 MPI tasks x no OpenMP threads

MPI task timing breakdown:
Section |  min time  |  avg time  |  max time  |%varavg| %total
---------------------------------------------------------------
Pair    | 0.01634    | 0.01634    | 0.01634    |   0.0 | 48.24
Bond    | 2.1458e-06 | 2.1458e-06 | 2.1458e-06 |   0.0 |  0.01
Neigh   | 0.016156   | 0.016156   | 0.016156   |   0.0 | 47.69
Comm    | 0.00051069 | 0.00051069 | 0.00051069 |   0.0 |  1.51
Output  | 1.0014e-05 | 1.0014e-05 | 1.0014e-05 |   0.0 |  0.03
Modify  | 0.00037503 | 0.00037503 | 0.00037503 |   0.0 |  1.11
Other   |            | 0.0004809  |            |       |  1.42

Nlocal:    8887 ave 8887 max 8887 min
Histogram: 1 0 0 0 0 0 0 0 0 0
Nghost:    4323 ave 4323 max 4323 min
Histogram: 1 0 0 0 0 0 0 0 0 0
Neighs:    185689 ave 185689 max 185689 min
Histogram: 1 0 0 0 0 0 0 0 0 0

Total # of neighbors = 185689
Ave neighs/atom = 20.8945
Ave special neighs/atom = 0.00540115
Neighbor list builds = 1
Dangerous builds = 0
run 10
Per MPI rank memory allocation (min/avg/max) = 11.84 | 11.84 | 11.84 Mbytes
c_com[1] c_com[2] c_com[3] 
   24.796962    15.377955    7.7074626 
   24.752533    15.343143    7.7166435 
Loop time of 0.033386 on 1 procs for 10 steps with 8887 atoms

Performance: 258791.172 tau/day, 299.527 timesteps/s
98.8% CPU use with 1 MPI tasks x no OpenMP threads

MPI task timing breakdown:
Section |  min time  |  avg time  |  max time  |%varavg| %total
---------------------------------------------------------------
Pair    | 0.015671   | 0.015671   | 0.015671   |   0.0 | 46.94
Bond    | 4.0531e-06 | 4.0531e-06 | 4.0531e-06 |   0.0 |  0.01
Neigh   | 0.016449   | 0.016449   | 0.016449   |   0.0 | 49.27
Comm    | 0.00042033 | 0.00042033 | 0.00042033 |   0.0 |  1.26
Output  | 1.0014e-05 | 1.0014e-05 | 1.0014e-05 |   0.0 |  0.03
Modify  | 0.00037622 | 0.00037622 | 0.00037622 |   0.0 |  1.13
Other   |            | 0.0004554  |            |       |  1.36

Nlocal:    8887 ave 8887 max 8887 min
Histogram: 1 0 0 0 0 0 0 0 0 0
Nghost:    4323 ave 4323 max 4323 min
Histogram: 1 0 0 0 0 0 0 0 0 0
Neighs:    185689 ave 185689 max 185689 min
Histogram: 1 0 0 0 0 0 0 0 0 0

Total # of neighbors = 185689
Ave neighs/atom = 20.8945
Ave special neighs/atom = 0.00540115
Neighbor list builds = 1
Dangerous builds = 0
run 10
Per MPI rank memory allocation (min/avg/max) = 11.84 | 11.84 | 11.84 Mbytes
c_com[1] c_com[2] c_com[3] 
   24.752533    15.343143    7.7166435 
    24.71919    15.309436    7.7309509 
Loop time of 0.032953 on 1 procs for 10 steps with 8887 atoms

Performance: 262191.416 tau/day, 303.462 timesteps/s
100.1% CPU use with 1 MPI tasks x no OpenMP threads

MPI task timing breakdown:
Section |  min time  |  avg time  |  max time  |%varavg| %total
---------------------------------------------------------------
Pair    | 0.015753   | 0.015753   | 0.015753   |   0.0 | 47.80
Bond    | 6.1989e-06 | 6.1989e-06 | 6.1989e-06 |   0.0 |  0.02
Neigh   | 0.015921   | 0.015921   | 0.015921   |   0.0 | 48.31
Comm    | 0.00042796 | 0.00042796 | 0.00042796 |   0.0 |  1.30
Output  | 1.0014e-05 | 1.0014e-05 | 1.0014e-05 |   0.0 |  0.03
Modify  | 0.00037718 | 0.00037718 | 0.00037718 |   0.0 |  1.14
Other   |            | 0.0004575  |            |       |  1.39

Nlocal:    8887 ave 8887 max 8887 min
Histogram: 1 0 0 0 0 0 0 0 0 0
Nghost:    4323 ave 4323 max 4323 min
Histogram: 1 0 0 0 0 0 0 0 0 0
Neighs:    185689 ave 185689 max 185689 min
Histogram: 1 0 0 0 0 0 0 0 0 0

Total # of neighbors = 185689
Ave neighs/atom = 20.8945
Ave special neighs/atom = 0.00540115
Neighbor list builds = 1
Dangerous builds = 0
run 10
Per MPI rank memory allocation (min/avg/max) = 11.84 | 11.84 | 11.84 Mbytes
c_com[1] c_com[2] c_com[3] 
    24.71919    15.309436    7.7309509 
   24.694759     15.28595    7.7485719 
Loop time of 0.033314 on 1 procs for 10 steps with 8887 atoms

Performance: 259350.504 tau/day, 300.174 timesteps/s
96.0% CPU use with 1 MPI tasks x no OpenMP threads

MPI task timing breakdown:
Section |  min time  |  avg time  |  max time  |%varavg| %total
---------------------------------------------------------------
Pair    | 0.015883   | 0.015883   | 0.015883   |   0.0 | 47.68
Bond    | 5.9605e-06 | 5.9605e-06 | 5.9605e-06 |   0.0 |  0.02
Neigh   | 0.016153   | 0.016153   | 0.016153   |   0.0 | 48.49
Comm    | 0.00041771 | 0.00041771 | 0.00041771 |   0.0 |  1.25
Output  | 1.0014e-05 | 1.0014e-05 | 1.0014e-05 |   0.0 |  0.03
Modify  | 0.00037885 | 0.00037885 | 0.00037885 |   0.0 |  1.14
Other   |            | 0.0004656  |            |       |  1.40

Nlocal:    8887 ave 8887 max 8887 min
Histogram: 1 0 0 0 0 0 0 0 0 0
Nghost:    4323 ave 4323 max 4323 min
Histogram: 1 0 0 0 0 0 0 0 0 0
Neighs:    185689 ave 185689 max 185689 min
Histogram: 1 0 0 0 0 0 0 0 0 0

Total # of neighbors = 185689
Ave neighs/atom = 20.8945
Ave special neighs/atom = 0.00540115
Neighbor list builds = 1
Dangerous builds = 0
run 10
Per MPI rank memory allocation (min/avg/max) = 11.84 | 11.84 | 11.84 Mbytes
c_com[1] c_com[2] c_com[3] 
   24.694759     15.28595    7.7485719 
    24.67245    15.262876    7.7720016 
Loop time of 0.0328062 on 1 procs for 10 steps with 8887 atoms

Performance: 263365.188 tau/day, 304.821 timesteps/s
100.6% CPU use with 1 MPI tasks x no OpenMP threads

MPI task timing breakdown:
Section |  min time  |  avg time  |  max time  |%varavg| %total
---------------------------------------------------------------
Pair    | 0.015748   | 0.015748   | 0.015748   |   0.0 | 48.00
Bond    | 3.0994e-06 | 3.0994e-06 | 3.0994e-06 |   0.0 |  0.01
Neigh   | 0.015774   | 0.015774   | 0.015774   |   0.0 | 48.08
Comm    | 0.00043941 | 0.00043941 | 0.00043941 |   0.0 |  1.34
Output  | 9.0599e-06 | 9.0599e-06 | 9.0599e-06 |   0.0 |  0.03
Modify  | 0.00037432 | 0.00037432 | 0.00037432 |   0.0 |  1.14
Other   |            | 0.0004582  |            |       |  1.40

Nlocal:    8887 ave 8887 max 8887 min
Histogram: 1 0 0 0 0 0 0 0 0 0
Nghost:    4323 ave 4323 max 4323 min
Histogram: 1 0 0 0 0 0 0 0 0 0
Neighs:    185689 ave 185689 max 185689 min
Histogram: 1 0 0 0 0 0 0 0 0 0

Total # of neighbors = 185689
Ave neighs/atom = 20.8945
Ave special neighs/atom = 0.00540115
Neighbor list builds = 1
Dangerous builds = 0
run 10
Per MPI rank memory allocation (min/avg/max) = 11.84 | 11.84 | 11.84 Mbytes
c_com[1] c_com[2] c_com[3] 
    24.67245    15.262876    7.7720016 
   24.655177     15.23239     7.789554 
Loop time of 0.0329812 on 1 procs for 10 steps with 8887 atoms

Performance: 261967.763 tau/day, 303.203 timesteps/s
100.0% CPU use with 1 MPI tasks x no OpenMP threads

MPI task timing breakdown:
Section |  min time  |  avg time  |  max time  |%varavg| %total
---------------------------------------------------------------
Pair    | 0.015802   | 0.015802   | 0.015802   |   0.0 | 47.91
Bond    | 4.7684e-06 | 4.7684e-06 | 4.7684e-06 |   0.0 |  0.01
Neigh   | 0.015895   | 0.015895   | 0.015895   |   0.0 | 48.19
Comm    | 0.00044441 | 0.00044441 | 0.00044441 |   0.0 |  1.35
Output  | 8.8215e-06 | 8.8215e-06 | 8.8215e-06 |   0.0 |  0.03
Modify  | 0.00036716 | 0.00036716 | 0.00036716 |   0.0 |  1.11
Other   |            | 0.0004594  |            |       |  1.39

Nlocal:    8887 ave 8887 max 8887 min
Histogram: 1 0 0 0 0 0 0 0 0 0
Nghost:    4323 ave 4323 max 4323 min
Histogram: 1 0 0 0 0 0 0 0 0 0
Neighs:    185689 ave 185689 max 185689 min
Histogram: 1 0 0 0 0 0 0 0 0 0

Total # of neighbors = 185689
Ave neighs/atom = 20.8945
Ave special neighs/atom = 0.00540115
Neighbor list builds = 1
Dangerous builds = 0
run 10
Per MPI rank memory allocation (min/avg/max) = 11.84 | 11.84 | 11.84 Mbytes
c_com[1] c_com[2] c_com[3] 
   24.655177     15.23239     7.789554 
   24.644553    15.197262    7.7994726 
Loop time of 0.0327761 on 1 procs for 10 steps with 8887 atoms

Performance: 263606.574 tau/day, 305.100 timesteps/s
100.7% CPU use with 1 MPI tasks x no OpenMP threads

MPI task timing breakdown:
Section |  min time  |  avg time  |  max time  |%varavg| %total
---------------------------------------------------------------
Pair    | 0.015633   | 0.015633   | 0.015633   |   0.0 | 47.70
Bond    | 4.0531e-06 | 4.0531e-06 | 4.0531e-06 |   0.0 |  0.01
Neigh   | 0.015895   | 0.015895   | 0.015895   |   0.0 | 48.50
Comm    | 0.00042295 | 0.00042295 | 0.00042295 |   0.0 |  1.29
Output  | 8.8215e-06 | 8.8215e-06 | 8.8215e-06 |   0.0 |  0.03
Modify  | 0.00035572 | 0.00035572 | 0.00035572 |   0.0 |  1.09
Other   |            | 0.0004568  |            |       |  1.39

Nlocal:    8887 ave 8887 max 8887 min
Histogram: 1 0 0 0 0 0 0 0 0 0
Nghost:    4323 ave 4323 max 4323 min
Histogram: 1 0 0 0 0 0 0 0 0 0
Neighs:    185689 ave 185689 max 185689 min
Histogram: 1 0 0 0 0 0 0 0 0 0

Total # of neighbors = 185689
Ave neighs/atom = 20.8945
Ave special neighs/atom = 0.00540115
Neighbor list builds = 1
Dangerous builds = 0
run 10
Per MPI rank memory allocation (min/avg/max) = 11.84 | 11.84 | 11.84 Mbytes
c_com[1] c_com[2] c_com[3] 
   24.644553    15.197262    7.7994726 
   24.633676    15.158513    7.8020727 
Loop time of 0.0325639 on 1 procs for 10 steps with 8887 atoms

Performance: 265324.283 tau/day, 307.088 timesteps/s
101.3% CPU use with 1 MPI tasks x no OpenMP threads

MPI task timing breakdown:
Section |  min time  |  avg time  |  max time  |%varavg| %total
---------------------------------------------------------------
Pair    | 0.015538   | 0.015538   | 0.015538   |   0.0 | 47.71
Bond    | 1.9073e-06 | 1.9073e-06 | 1.9073e-06 |   0.0 |  0.01
Neigh   | 0.015791   | 0.015791   | 0.015791   |   0.0 | 48.49
Comm    | 0.00041819 | 0.00041819 | 0.00041819 |   0.0 |  1.28
Output  | 1.0014e-05 | 1.0014e-05 | 1.0014e-05 |   0.0 |  0.03
Modify  | 0.00034475 | 0.00034475 | 0.00034475 |   0.0 |  1.06
Other   |            | 0.0004606  |            |       |  1.41

Nlocal:    8887 ave 8887 max 8887 min
Histogram: 1 0 0 0 0 0 0 0 0 0
Nghost:    4323 ave 4323 max 4323 min
Histogram: 1 0 0 0 0 0 0 0 0 0
Neighs:    185689 ave 185689 max 185689 min
Histogram: 1 0 0 0 0 0 0 0 0 0

Total # of neighbors = 185689
Ave neighs/atom = 20.8945
Ave special neighs/atom = 0.00540115
Neighbor list builds = 1
Dangerous builds = 0
run 10
Per MPI rank memory allocation (min/avg/max) = 11.84 | 11.84 | 11.84 Mbytes
c_com[1] c_com[2] c_com[3] 
   24.633676    15.158513    7.8020727 
   24.636896     15.11242    7.7946372 
Loop time of 0.0329471 on 1 procs for 10 steps with 8887 atoms

Performance: 262238.849 tau/day, 303.517 timesteps/s
100.1% CPU use with 1 MPI tasks x no OpenMP threads

MPI task timing breakdown:
Section |  min time  |  avg time  |  max time  |%varavg| %total
---------------------------------------------------------------
Pair    | 0.015908   | 0.015908   | 0.015908   |   0.0 | 48.28
Bond    | 4.0531e-06 | 4.0531e-06 | 4.0531e-06 |   0.0 |  0.01
Neigh   | 0.015792   | 0.015792   | 0.015792   |   0.0 | 47.93
Comm    | 0.00041986 | 0.00041986 | 0.00041986 |   0.0 |  1.27
Output  | 9.0599e-06 | 9.0599e-06 | 9.0599e-06 |   0.0 |  0.03
Modify  | 0.00035501 | 0.00035501 | 0.00035501 |   0.0 |  1.08
Other   |            | 0.0004592  |            |       |  1.39

Nlocal:    8887 ave 8887 max 8887 min
Histogram: 1 0 0 0 0 0 0 0 0 0
Nghost:    4323 ave 4323 max 4323 min
Histogram: 1 0 0 0 0 0 0 0 0 0
Neighs:    185689 ave 185689 max 185689 min
Histogram: 1 0 0 0 0 0 0 0 0 0

Total # of neighbors = 185689
Ave neighs/atom = 20.8945
Ave special neighs/atom = 0.00540115
Neighbor list builds = 1
Dangerous builds = 0
run 10
Per MPI rank memory allocation (min/avg/max) = 11.84 | 11.84 | 11.84 Mbytes
c_com[1] c_com[2] c_com[3] 
   24.636896     15.11242    7.7946372 
    24.63439    15.059132    7.7847403 
Loop time of 0.0328531 on 1 procs for 10 steps with 8887 atoms

Performance: 262988.668 tau/day, 304.385 timesteps/s
100.4% CPU use with 1 MPI tasks x no OpenMP threads

MPI task timing breakdown:
Section |  min time  |  avg time  |  max time  |%varavg| %total
---------------------------------------------------------------
Pair    | 0.015665   | 0.015665   | 0.015665   |   0.0 | 47.68
Bond    | 5.9605e-06 | 5.9605e-06 | 5.9605e-06 |   0.0 |  0.02
Neigh   | 0.015938   | 0.015938   | 0.015938   |   0.0 | 48.51
Comm    | 0.00041437 | 0.00041437 | 0.00041437 |   0.0 |  1.26
Output  | 9.0599e-06 | 9.0599e-06 | 9.0599e-06 |   0.0 |  0.03
Modify  | 0.00036407 | 0.00036407 | 0.00036407 |   0.0 |  1.11
Other   |            | 0.0004568  |            |       |  1.39

Nlocal:    8887 ave 8887 max 8887 min
Histogram: 1 0 0 0 0 0 0 0 0 0
Nghost:    4323 ave 4323 max 4323 min
Histogram: 1 0 0 0 0 0 0 0 0 0
Neighs:    185689 ave 185689 max 185689 min
Histogram: 1 0 0 0 0 0 0 0 0 0

Total # of neighbors = 185689
Ave neighs/atom = 20.8945
Ave special neighs/atom = 0.00540115
Neighbor list builds = 1
Dangerous builds = 0
run 10
Per MPI rank memory allocation (min/avg/max) = 11.84 | 11.84 | 11.84 Mbytes
c_com[1] c_com[2] c_com[3] 
    24.63439    15.059132    7.7847403 
   24.610846    15.015681    7.7793216 
Loop time of 0.032656 on 1 procs for 10 steps with 8887 atoms

Performance: 264576.558 tau/day, 306.223 timesteps/s
98.0% CPU use with 1 MPI tasks x no OpenMP threads

MPI task timing breakdown:
Section |  min time  |  avg time  |  max time  |%varavg| %total
---------------------------------------------------------------
Pair    | 0.015583   | 0.015583   | 0.015583   |   0.0 | 47.72
Bond    | 1.9073e-06 | 1.9073e-06 | 1.9073e-06 |   0.0 |  0.01
Neigh   | 0.01583    | 0.01583    | 0.01583    |   0.0 | 48.48
Comm    | 0.00041962 | 0.00041962 | 0.00041962 |   0.0 |  1.28
Output  | 9.0599e-06 | 9.0599e-06 | 9.0599e-06 |   0.0 |  0.03
Modify  | 0.00035501 | 0.00035501 | 0.00035501 |   0.0 |  1.09
Other   |            | 0.0004575  |            |       |  1.40

Nlocal:    8887 ave 8887 max 8887 min
Histogram: 1 0 0 0 0 0 0 0 0 0
Nghost:    4323 ave 4323 max 4323 min
Histogram: 1 0 0 0 0 0 0 0 0 0
Neighs:    185689 ave 185689 max 185689 min
Histogram: 1 0 0 0 0 0 0 0 0 0

Total # of neighbors = 185689
Ave neighs/atom = 20.8945
Ave special neighs/atom = 0.00540115
Neighbor list builds = 1
Dangerous builds = 0
run 10
Per MPI rank memory allocation (min/avg/max) = 11.84 | 11.84 | 11.84 Mbytes
c_com[1] c_com[2] c_com[3] 
   24.610846    15.015681    7.7793216 
   24.605046    14.990589    7.7762432 
Loop time of 0.0331249 on 1 procs for 10 steps with 8887 atoms

Performance: 260830.789 tau/day, 301.887 timesteps/s
99.6% CPU use with 1 MPI tasks x no OpenMP threads

MPI task timing breakdown:
Section |  min time  |  avg time  |  max time  |%varavg| %total
---------------------------------------------------------------
Pair    | 0.015897   | 0.015897   | 0.015897   |   0.0 | 47.99
Bond    | 7.1526e-06 | 7.1526e-06 | 7.1526e-06 |   0.0 |  0.02
Neigh   | 0.015967   | 0.015967   | 0.015967   |   0.0 | 48.20
Comm    | 0.00042558 | 0.00042558 | 0.00042558 |   0.0 |  1.28
Output  | 9.0599e-06 | 9.0599e-06 | 9.0599e-06 |   0.0 |  0.03
Modify  | 0.00035167 | 0.00035167 | 0.00035167 |   0.0 |  1.06
Other   |            | 0.0004675  |            |       |  1.41

Nlocal:    8887 ave 8887 max 8887 min
Histogram: 1 0 0 0 0 0 0 0 0 0
Nghost:    4323 ave 4323 max 4323 min
Histogram: 1 0 0 0 0 0 0 0 0 0
Neighs:    185689 ave 185689 max 185689 min
Histogram: 1 0 0 0 0 0 0 0 0 0

Total # of neighbors = 185689
Ave neighs/atom = 20.8945
Ave special neighs/atom = 0.00540115
Neighbor list builds = 1
Dangerous builds = 0
run 10
Per MPI rank memory allocation (min/avg/max) = 11.84 | 11.84 | 11.84 Mbytes
c_com[1] c_com[2] c_com[3] 
   24.605046    14.990589    7.7762432 
   24.611646    14.976913    7.7653548 
Loop time of 0.0335948 on 1 procs for 10 steps with 8887 atoms

Performance: 257182.302 tau/day, 297.665 timesteps/s
98.2% CPU use with 1 MPI tasks x no OpenMP threads

MPI task timing breakdown:
Section |  min time  |  avg time  |  max time  |%varavg| %total
---------------------------------------------------------------
Pair    | 0.015943   | 0.015943   | 0.015943   |   0.0 | 47.46
Bond    | 6.9141e-06 | 6.9141e-06 | 6.9141e-06 |   0.0 |  0.02
Neigh   | 0.016376   | 0.016376   | 0.016376   |   0.0 | 48.75
Comm    | 0.00041866 | 0.00041866 | 0.00041866 |   0.0 |  1.25
Output  | 9.0599e-06 | 9.0599e-06 | 9.0599e-06 |   0.0 |  0.03
Modify  | 0.00035357 | 0.00035357 | 0.00035357 |   0.0 |  1.05
Other   |            | 0.0004876  |            |       |  1.45

Nlocal:    8887 ave 8887 max 8887 min
Histogram: 1 0 0 0 0 0 0 0 0 0
Nghost:    4323 ave 4323 max 4323 min
Histogram: 1 0 0 0 0 0 0 0 0 0
Neighs:    185689 ave 185689 max 185689 min
Histogram: 1 0 0 0 0 0 0 0 0 0

Total # of neighbors = 185689
Ave neighs/atom = 20.8945
Ave special neighs/atom = 0.00540115
Neighbor list builds = 1
Dangerous builds = 0
run 10
Per MPI rank memory allocation (min/avg/max) = 11.84 | 11.84 | 11.84 Mbytes
c_com[1] c_com[2] c_com[3] 
   24.611646    14.976913    7.7653548 
   24.621946    14.968864    7.7624297 
Loop time of 0.0332501 on 1 procs for 10 steps with 8887 atoms

Performance: 259848.894 tau/day, 300.751 timesteps/s
102.2% CPU use with 1 MPI tasks x no OpenMP threads

MPI task timing breakdown:
Section |  min time  |  avg time  |  max time  |%varavg| %total
---------------------------------------------------------------
Pair    | 0.015986   | 0.015986   | 0.015986   |   0.0 | 48.08
Bond    | 3.3379e-06 | 3.3379e-06 | 3.3379e-06 |   0.0 |  0.01
Neigh   | 0.015981   | 0.015981   | 0.015981   |   0.0 | 48.06
Comm    | 0.00044346 | 0.00044346 | 0.00044346 |   0.0 |  1.33
Output  | 9.0599e-06 | 9.0599e-06 | 9.0599e-06 |   0.0 |  0.03
Modify  | 0.00035238 | 0.00035238 | 0.00035238 |   0.0 |  1.06
Other   |            | 0.0004745  |            |       |  1.43

Nlocal:    8887 ave 8887 max 8887 min
Histogram: 1 0 0 0 0 0 0 0 0 0
Nghost:    4323 ave 4323 max 4323 min
Histogram: 1 0 0 0 0 0 0 0 0 0
Neighs:    185689 ave 185689 max 185689 min
Histogram: 1 0 0 0 0 0 0 0 0 0

Total # of neighbors = 185689
Ave neighs/atom = 20.8945
Ave special neighs/atom = 0.00540115
Neighbor list builds = 1
Dangerous builds = 0
run 10
Per MPI rank memory allocation (min/avg/max) = 11.84 | 11.84 | 11.84 Mbytes
c_com[1] c_com[2] c_com[3] 
   24.621946    14.968864    7.7624297 
    24.63424    14.970968    7.7459696 
Loop time of 0.034034 on 1 procs for 10 steps with 8887 atoms

Performance: 253863.681 tau/day, 293.824 timesteps/s
99.9% CPU use with 1 MPI tasks x no OpenMP threads

MPI task timing breakdown:
Section |  min time  |  avg time  |  max time  |%varavg| %total
---------------------------------------------------------------
Pair    | 0.016364   | 0.016364   | 0.016364   |   0.0 | 48.08
Bond    | 1.9073e-06 | 1.9073e-06 | 1.9073e-06 |   0.0 |  0.01
Neigh   | 0.016388   | 0.016388   | 0.016388   |   0.0 | 48.15
Comm    | 0.00042152 | 0.00042152 | 0.00042152 |   0.0 |  1.24
Output  | 2.0981e-05 | 2.0981e-05 | 2.0981e-05 |   0.0 |  0.06
Modify  | 0.00035286 | 0.00035286 | 0.00035286 |   0.0 |  1.04
Other   |            | 0.0004847  |            |       |  1.42

Nlocal:    8887 ave 8887 max 8887 min
Histogram: 1 0 0 0 0 0 0 0 0 0
Nghost:    4323 ave 4323 max 4323 min
Histogram: 1 0 0 0 0 0 0 0 0 0
Neighs:    185689 ave 185689 max 185689 min
Histogram: 1 0 0 0 0 0 0 0 0 0

Total # of neighbors = 185689
Ave neighs/atom = 20.8945
Ave special neighs/atom = 0.00540115
Neighbor list builds = 1
Dangerous builds = 0
run 10
Per MPI rank memory allocation (min/avg/max) = 11.84 | 11.84 | 11.84 Mbytes
c_com[1] c_com[2] c_com[3] 
    24.63424    14.970968    7.7459696 
   24.645912    14.984504    7.7371123 
Loop time of 0.0335851 on 1 procs for 10 steps with 8887 atoms

Performance: 257257.156 tau/day, 297.751 timesteps/s
98.2% CPU use with 1 MPI tasks x no OpenMP threads

MPI task timing breakdown:
Section |  min time  |  avg time  |  max time  |%varavg| %total
---------------------------------------------------------------
Pair    | 0.016211   | 0.016211   | 0.016211   |   0.0 | 48.27
Bond    | 3.8147e-06 | 3.8147e-06 | 3.8147e-06 |   0.0 |  0.01
Neigh   | 0.016091   | 0.016091   | 0.016091   |   0.0 | 47.91
Comm    | 0.00043154 | 0.00043154 | 0.00043154 |   0.0 |  1.28
Output  | 9.0599e-06 | 9.0599e-06 | 9.0599e-06 |   0.0 |  0.03
Modify  | 0.00035119 | 0.00035119 | 0.00035119 |   0.0 |  1.05
Other   |            | 0.0004871  |            |       |  1.45

Nlocal:    8887 ave 8887 max 8887 min
Histogram: 1 0 0 0 0 0 0 0 0 0
Nghost:    4323 ave 4323 max 4323 min
Histogram: 1 0 0 0 0 0 0 0 0 0
Neighs:    185689 ave 185689 max 185689 min
Histogram: 1 0 0 0 0 0 0 0 0 0

Total # of neighbors = 185689
Ave neighs/atom = 20.8945
Ave special neighs/atom = 0.00540115
Neighbor list builds = 1
Dangerous builds = 0
run 10
Per MPI rank memory allocation (min/avg/max) = 11.84 | 11.84 | 11.84 Mbytes
c_com[1] c_com[2] c_com[3] 
   24.645912    14.984504    7.7371123 
   24.650937    15.003213    7.7398723 
Loop time of 0.0332282 on 1 procs for 10 steps with 8887 atoms

Performance: 260020.425 tau/day, 300.950 timesteps/s
99.3% CPU use with 1 MPI tasks x no OpenMP threads

MPI task timing breakdown:
Section |  min time  |  avg time  |  max time  |%varavg| %total
---------------------------------------------------------------
Pair    | 0.015963   | 0.015963   | 0.015963   |   0.0 | 48.04
Bond    | 7.1526e-06 | 7.1526e-06 | 7.1526e-06 |   0.0 |  0.02
Neigh   | 0.015972   | 0.015972   | 0.015972   |   0.0 | 48.07
Comm    | 0.00044894 | 0.00044894 | 0.00044894 |   0.0 |  1.35
Output  | 1.0014e-05 | 1.0014e-05 | 1.0014e-05 |   0.0 |  0.03
Modify  | 0.00035    | 0.00035    | 0.00035    |   0.0 |  1.05
Other   |            | 0.0004771  |            |       |  1.44

Nlocal:    8887 ave 8887 max 8887 min
Histogram: 1 0 0 0 0 0 0 0 0 0
Nghost:    4323 ave 4323 max 4323 min
Histogram: 1 0 0 0 0 0 0 0 0 0
Neighs:    185689 ave 185689 max 185689 min
Histogram: 1 0 0 0 0 0 0 0 0 0

Total # of neighbors = 185689
Ave neighs/atom = 20.8945
Ave special neighs/atom = 0.00540115
Neighbor list builds = 1
Dangerous builds = 0
run 10
Per MPI rank memory allocation (min/avg/max) = 11.84 | 11.84 | 11.84 Mbytes
c_com[1] c_com[2] c_com[3] 
   24.650937    15.003213    7.7398723 
   24.670028     15.03451    7.7556481 
Loop time of 0.0334499 on 1 procs for 10 steps with 8887 atoms

Performance: 258296.827 tau/day, 298.955 timesteps/s
98.6% CPU use with 1 MPI tasks x no OpenMP threads

MPI task timing breakdown:
Section |  min time  |  avg time  |  max time  |%varavg| %total
---------------------------------------------------------------
Pair    | 0.016018   | 0.016018   | 0.016018   |   0.0 | 47.89
Bond    | 4.0531e-06 | 4.0531e-06 | 4.0531e-06 |   0.0 |  0.01
Neigh   | 0.016128   | 0.016128   | 0.016128   |   0.0 | 48.22
Comm    | 0.00045395 | 0.00045395 | 0.00045395 |   0.0 |  1.36
Output  | 9.7752e-06 | 9.7752e-06 | 9.7752e-06 |   0.0 |  0.03
Modify  | 0.00037003 | 0.00037003 | 0.00037003 |   0.0 |  1.11
Other   |            | 0.0004659  |            |       |  1.39

Nlocal:    8887 ave 8887 max 8887 min
Histogram: 1 0 0 0 0 0 0 0 0 0
Nghost:    4323 ave 4323 max 4323 min
Histogram: 1 0 0 0 0 0 0 0 0 0
Neighs:    185689 ave 185689 max 185689 min
Histogram: 1 0 0 0 0 0 0 0 0 0

Total # of neighbors = 185689
Ave neighs/atom = 20.8945
Ave special neighs/atom = 0.00540115
Neighbor list builds = 1
Dangerous builds = 0
run 10
Per MPI rank memory allocation (min/avg/max) = 11.84 | 11.84 | 11.84 Mbytes
c_com[1] c_com[2] c_com[3] 
   24.670028     15.03451    7.7556481 
   24.687881    15.069884    7.7810217 
Loop time of 0.0336421 on 1 procs for 10 steps with 8887 atoms

Performance: 256821.421 tau/day, 297.247 timesteps/s
95.1% CPU use with 1 MPI tasks x no OpenMP threads

MPI task timing breakdown:
Section |  min time  |  avg time  |  max time  |%varavg| %total
---------------------------------------------------------------
Pair    | 0.016061   | 0.016061   | 0.016061   |   0.0 | 47.74
Bond    | 4.0531e-06 | 4.0531e-06 | 4.0531e-06 |   0.0 |  0.01
Neigh   | 0.016255   | 0.016255   | 0.016255   |   0.0 | 48.32
Comm    | 0.00044847 | 0.00044847 | 0.00044847 |   0.0 |  1.33
Output  | 8.8215e-06 | 8.8215e-06 | 8.8215e-06 |   0.0 |  0.03
Modify  | 0.00038981 | 0.00038981 | 0.00038981 |   0.0 |  1.16
[...]
Histogram: 1 0 0 0 0 0 0 0 0 0
Nghost:    4323 ave 4323 max 4323 min
Histogram: 1 0 0 0 0 0 0 0 0 0
Neighs:    185689 ave 185689 max 185689 min
Histogram: 1 0 0 0 0 0 0 0 0 0

Total # of neighbors = 185689
Ave neighs/atom = 20.8945
Ave special neighs/atom = 0.00540115
Neighbor list builds = 1
Dangerous builds = 0
run 10
Per MPI rank memory allocation (min/avg/max) = 11.84 | 11.84 | 11.84 Mbytes
c_com[1] c_com[2] c_com[3] 
   24.282591    24.027699    15.096799 
   24.268783    24.044619    15.101564 
Loop time of 0.034513 on 1 procs for 10 steps with 8887 atoms

Performance: 250340.476 tau/day, 289.746 timesteps/s
101.4% CPU use with 1 MPI tasks x no OpenMP threads

MPI task timing breakdown:
Section |  min time  |  avg time  |  max time  |%varavg| %total
---------------------------------------------------------------
Pair    | 0.016072   | 0.016072   | 0.016072   |   0.0 | 46.57
Bond    | 4.53e-06   | 4.53e-06   | 4.53e-06   |   0.0 |  0.01
Neigh   | 0.017123   | 0.017123   | 0.017123   |   0.0 | 49.61
Comm    | 0.00047588 | 0.00047588 | 0.00047588 |   0.0 |  1.38
Output  | 9.7752e-06 | 9.7752e-06 | 9.7752e-06 |   0.0 |  0.03
Modify  | 0.00035763 | 0.00035763 | 0.00035763 |   0.0 |  1.04
Other   |            | 0.0004704  |            |       |  1.36

Nlocal:    8887 ave 8887 max 8887 min
Histogram: 1 0 0 0 0 0 0 0 0 0
Nghost:    4323 ave 4323 max 4323 min
Histogram: 1 0 0 0 0 0 0 0 0 0
Neighs:    185689 ave 185689 max 185689 min
Histogram: 1 0 0 0 0 0 0 0 0 0

Total # of neighbors = 185689
Ave neighs/atom = 20.8945
Ave special neighs/atom = 0.00540115
Neighbor list builds = 1
Dangerous builds = 0
run 10
Per MPI rank memory allocation (min/avg/max) = 11.84 | 11.84 | 11.84 Mbytes
c_com[1] c_com[2] c_com[3] 
   24.268783    24.044619    15.101564 
   24.258839    24.063141    15.104662 
Loop time of 0.0374761 on 1 procs for 10 steps with 8887 atoms

Performance: 230547.164 tau/day, 266.837 timesteps/s
96.0% CPU use with 1 MPI tasks x no OpenMP threads

MPI task timing breakdown:
Section |  min time  |  avg time  |  max time  |%varavg| %total
---------------------------------------------------------------
Pair    | 0.017933   | 0.017933   | 0.017933   |   0.0 | 47.85
Bond    | 5.9605e-06 | 5.9605e-06 | 5.9605e-06 |   0.0 |  0.02
Neigh   | 0.01806    | 0.01806    | 0.01806    |   0.0 | 48.19
Comm    | 0.00051475 | 0.00051475 | 0.00051475 |   0.0 |  1.37
Output  | 1.0014e-05 | 1.0014e-05 | 1.0014e-05 |   0.0 |  0.03
Modify  | 0.00041723 | 0.00041723 | 0.00041723 |   0.0 |  1.11
Other   |            | 0.0005352  |            |       |  1.43

Nlocal:    8887 ave 8887 max 8887 min
Histogram: 1 0 0 0 0 0 0 0 0 0
Nghost:    4323 ave 4323 max 4323 min
Histogram: 1 0 0 0 0 0 0 0 0 0
Neighs:    185689 ave 185689 max 185689 min
Histogram: 1 0 0 0 0 0 0 0 0 0

Total # of neighbors = 185689
Ave neighs/atom = 20.8945
Ave special neighs/atom = 0.00540115
Neighbor list builds = 1
Dangerous builds = 0
run 10
Per MPI rank memory allocation (min/avg/max) = 11.84 | 11.84 | 11.84 Mbytes
c_com[1] c_com[2] c_com[3] 
   24.258839    24.063141    15.104662 
   24.245983    24.077461    15.124893 
Loop time of 0.035749 on 1 procs for 10 steps with 8887 atoms

Performance: 241685.362 tau/day, 279.728 timesteps/s
100.7% CPU use with 1 MPI tasks x no OpenMP threads

MPI task timing breakdown:
Section |  min time  |  avg time  |  max time  |%varavg| %total
---------------------------------------------------------------
Pair    | 0.01719    | 0.01719    | 0.01719    |   0.0 | 48.09
Bond    | 6.4373e-06 | 6.4373e-06 | 6.4373e-06 |   0.0 |  0.02
Neigh   | 0.01725    | 0.01725    | 0.01725    |   0.0 | 48.25
Comm    | 0.00042367 | 0.00042367 | 0.00042367 |   0.0 |  1.19
Output  | 1.0014e-05 | 1.0014e-05 | 1.0014e-05 |   0.0 |  0.03
Modify  | 0.00037956 | 0.00037956 | 0.00037956 |   0.0 |  1.06
Other   |            | 0.000489   |            |       |  1.37

Nlocal:    8887 ave 8887 max 8887 min
Histogram: 1 0 0 0 0 0 0 0 0 0
Nghost:    4323 ave 4323 max 4323 min
Histogram: 1 0 0 0 0 0 0 0 0 0
Neighs:    185689 ave 185689 max 185689 min
Histogram: 1 0 0 0 0 0 0 0 0 0

Total # of neighbors = 185689
Ave neighs/atom = 20.8945
Ave special neighs/atom = 0.00540115
Neighbor list builds = 1
Dangerous builds = 0
run 10
Per MPI rank memory allocation (min/avg/max) = 11.84 | 11.84 | 11.84 Mbytes
c_com[1] c_com[2] c_com[3] 
   24.245983    24.077461    15.124893 
   24.234296    24.092987     15.14557 
Loop time of 0.034986 on 1 procs for 10 steps with 8887 atoms

Performance: 246955.790 tau/day, 285.828 timesteps/s
97.2% CPU use with 1 MPI tasks x no OpenMP threads

MPI task timing breakdown:
Section |  min time  |  avg time  |  max time  |%varavg| %total
---------------------------------------------------------------
Pair    | 0.01722    | 0.01722    | 0.01722    |   0.0 | 49.22
Bond    | 5.722e-06  | 5.722e-06  | 5.722e-06  |   0.0 |  0.02
Neigh   | 0.016376   | 0.016376   | 0.016376   |   0.0 | 46.81
Comm    | 0.00046062 | 0.00046062 | 0.00046062 |   0.0 |  1.32
Output  | 1.0014e-05 | 1.0014e-05 | 1.0014e-05 |   0.0 |  0.03
Modify  | 0.00040531 | 0.00040531 | 0.00040531 |   0.0 |  1.16
Other   |            | 0.0005081  |            |       |  1.45

Nlocal:    8887 ave 8887 max 8887 min
Histogram: 1 0 0 0 0 0 0 0 0 0
Nghost:    4323 ave 4323 max 4323 min
Histogram: 1 0 0 0 0 0 0 0 0 0
Neighs:    185689 ave 185689 max 185689 min
Histogram: 1 0 0 0 0 0 0 0 0 0

Total # of neighbors = 185689
Ave neighs/atom = 20.8945
Ave special neighs/atom = 0.00540115
Neighbor list builds = 1
Dangerous builds = 0
run 10
Per MPI rank memory allocation (min/avg/max) = 11.84 | 11.84 | 11.84 Mbytes
c_com[1] c_com[2] c_com[3] 
   24.234296    24.092987     15.14557 
   24.220973    24.110135    15.177928 
Loop time of 0.036798 on 1 procs for 10 steps with 8887 atoms

Performance: 234795.367 tau/day, 271.754 timesteps/s
100.5% CPU use with 1 MPI tasks x no OpenMP threads

MPI task timing breakdown:
Section |  min time  |  avg time  |  max time  |%varavg| %total
---------------------------------------------------------------
Pair    | 0.01789    | 0.01789    | 0.01789    |   0.0 | 48.62
Bond    | 5.9605e-06 | 5.9605e-06 | 5.9605e-06 |   0.0 |  0.02
Neigh   | 0.017433   | 0.017433   | 0.017433   |   0.0 | 47.38
Comm    | 0.00051641 | 0.00051641 | 0.00051641 |   0.0 |  1.40
Output  | 9.0599e-06 | 9.0599e-06 | 9.0599e-06 |   0.0 |  0.02
Modify  | 0.00042963 | 0.00042963 | 0.00042963 |   0.0 |  1.17
Other   |            | 0.000514   |            |       |  1.40

Nlocal:    8887 ave 8887 max 8887 min
Histogram: 1 0 0 0 0 0 0 0 0 0
Nghost:    4323 ave 4323 max 4323 min
Histogram: 1 0 0 0 0 0 0 0 0 0
Neighs:    185689 ave 185689 max 185689 min
Histogram: 1 0 0 0 0 0 0 0 0 0

Total # of neighbors = 185689
Ave neighs/atom = 20.8945
Ave special neighs/atom = 0.00540115
Neighbor list builds = 1
Dangerous builds = 0
run 10
Per MPI rank memory allocation (min/avg/max) = 11.84 | 11.84 | 11.84 Mbytes
c_com[1] c_com[2] c_com[3] 
   24.220973    24.110135    15.177928 
   24.215782    24.104363    15.213913 
Loop time of 0.034055 on 1 procs for 10 steps with 8887 atoms

Performance: 253707.279 tau/day, 293.643 timesteps/s
99.8% CPU use with 1 MPI tasks x no OpenMP threads

MPI task timing breakdown:
Section |  min time  |  avg time  |  max time  |%varavg| %total
---------------------------------------------------------------
Pair    | 0.016102   | 0.016102   | 0.016102   |   0.0 | 47.28
Bond    | 1.9073e-06 | 1.9073e-06 | 1.9073e-06 |   0.0 |  0.01
Neigh   | 0.0166     | 0.0166     | 0.0166     |   0.0 | 48.75
Comm    | 0.00046253 | 0.00046253 | 0.00046253 |   0.0 |  1.36
Output  | 8.8215e-06 | 8.8215e-06 | 8.8215e-06 |   0.0 |  0.03
Modify  | 0.00037646 | 0.00037646 | 0.00037646 |   0.0 |  1.11
Other   |            | 0.0005031  |            |       |  1.48

Nlocal:    8887 ave 8887 max 8887 min
Histogram: 1 0 0 0 0 0 0 0 0 0
Nghost:    4323 ave 4323 max 4323 min
Histogram: 1 0 0 0 0 0 0 0 0 0
Neighs:    185689 ave 185689 max 185689 min
Histogram: 1 0 0 0 0 0 0 0 0 0

Total # of neighbors = 185689
Ave neighs/atom = 20.8945
Ave special neighs/atom = 0.00540115
Neighbor list builds = 1
Dangerous builds = 0
run 10
Per MPI rank memory allocation (min/avg/max) = 11.84 | 11.84 | 11.84 Mbytes
c_com[1] c_com[2] c_com[3] 
   24.215782    24.104363    15.213913 
   24.207248    24.108139    15.229595 
Loop time of 0.033684 on 1 procs for 10 steps with 8887 atoms

Performance: 256501.487 tau/day, 296.877 timesteps/s
100.9% CPU use with 1 MPI tasks x no OpenMP threads

MPI task timing breakdown:
Section |  min time  |  avg time  |  max time  |%varavg| %total
---------------------------------------------------------------
Pair    | 0.015818   | 0.015818   | 0.015818   |   0.0 | 46.96
Bond    | 4.7684e-06 | 4.7684e-06 | 4.7684e-06 |   0.0 |  0.01
Neigh   | 0.016579   | 0.016579   | 0.016579   |   0.0 | 49.22
Comm    | 0.00045443 | 0.00045443 | 0.00045443 |   0.0 |  1.35
Output  | 9.0599e-06 | 9.0599e-06 | 9.0599e-06 |   0.0 |  0.03
Modify  | 0.00034642 | 0.00034642 | 0.00034642 |   0.0 |  1.03
Other   |            | 0.0004723  |            |       |  1.40

Nlocal:    8887 ave 8887 max 8887 min
Histogram: 1 0 0 0 0 0 0 0 0 0
Nghost:    4323 ave 4323 max 4323 min
Histogram: 1 0 0 0 0 0 0 0 0 0
Neighs:    185689 ave 185689 max 185689 min
Histogram: 1 0 0 0 0 0 0 0 0 0

Total # of neighbors = 185689
Ave neighs/atom = 20.8945
Ave special neighs/atom = 0.00540115
Neighbor list builds = 1
Dangerous builds = 0
run 10
Per MPI rank memory allocation (min/avg/max) = 11.84 | 11.84 | 11.84 Mbytes
c_com[1] c_com[2] c_com[3] 
   24.207248    24.108139    15.229595 
   24.205129    24.104366    15.245402 
Loop time of 0.0352781 on 1 procs for 10 steps with 8887 atoms

Performance: 244911.275 tau/day, 283.462 timesteps/s
96.4% CPU use with 1 MPI tasks x no OpenMP threads

MPI task timing breakdown:
Section |  min time  |  avg time  |  max time  |%varavg| %total
---------------------------------------------------------------
Pair    | 0.017341   | 0.017341   | 0.017341   |   0.0 | 49.15
Bond    | 4.2915e-06 | 4.2915e-06 | 4.2915e-06 |   0.0 |  0.01
Neigh   | 0.016518   | 0.016518   | 0.016518   |   0.0 | 46.82
Comm    | 0.00048232 | 0.00048232 | 0.00048232 |   0.0 |  1.37
Output  | 1.0014e-05 | 1.0014e-05 | 1.0014e-05 |   0.0 |  0.03
Modify  | 0.0004065  | 0.0004065  | 0.0004065  |   0.0 |  1.15
Other   |            | 0.0005159  |            |       |  1.46

Nlocal:    8887 ave 8887 max 8887 min
Histogram: 1 0 0 0 0 0 0 0 0 0
Nghost:    4323 ave 4323 max 4323 min
Histogram: 1 0 0 0 0 0 0 0 0 0
Neighs:    185689 ave 185689 max 185689 min
Histogram: 1 0 0 0 0 0 0 0 0 0

Total # of neighbors = 185689
Ave neighs/atom = 20.8945
Ave special neighs/atom = 0.00540115
Neighbor list builds = 1
Dangerous builds = 0
run 10
Per MPI rank memory allocation (min/avg/max) = 11.84 | 11.84 | 11.84 Mbytes
c_com[1] c_com[2] c_com[3] 
   24.205129    24.104366    15.245402 
   24.210645    24.101148    15.259797 
Loop time of 0.034086 on 1 procs for 10 steps with 8887 atoms

Performance: 253476.582 tau/day, 293.376 timesteps/s
99.7% CPU use with 1 MPI tasks x no OpenMP threads

MPI task timing breakdown:
Section |  min time  |  avg time  |  max time  |%varavg| %total
---------------------------------------------------------------
Pair    | 0.016271   | 0.016271   | 0.016271   |   0.0 | 47.73
Bond    | 5.0068e-06 | 5.0068e-06 | 5.0068e-06 |   0.0 |  0.01
Neigh   | 0.016521   | 0.016521   | 0.016521   |   0.0 | 48.47
Comm    | 0.00043178 | 0.00043178 | 0.00043178 |   0.0 |  1.27
Output  | 8.8215e-06 | 8.8215e-06 | 8.8215e-06 |   0.0 |  0.03
Modify  | 0.00037456 | 0.00037456 | 0.00037456 |   0.0 |  1.10
Other   |            | 0.000474   |            |       |  1.39

Nlocal:    8887 ave 8887 max 8887 min
Histogram: 1 0 0 0 0 0 0 0 0 0
Nghost:    4323 ave 4323 max 4323 min
Histogram: 1 0 0 0 0 0 0 0 0 0
Neighs:    185689 ave 185689 max 185689 min
Histogram: 1 0 0 0 0 0 0 0 0 0

Total # of neighbors = 185689
Ave neighs/atom = 20.8945
Ave special neighs/atom = 0.00540115
Neighbor list builds = 1
Dangerous builds = 0
run 10
Per MPI rank memory allocation (min/avg/max) = 11.84 | 11.84 | 11.84 Mbytes
c_com[1] c_com[2] c_com[3] 
   24.210645    24.101148    15.259797 
   24.227689    24.098654    15.277682 
Loop time of 0.0352859 on 1 procs for 10 steps with 8887 atoms

Performance: 244856.666 tau/day, 283.399 timesteps/s
90.7% CPU use with 1 MPI tasks x no OpenMP threads

MPI task timing breakdown:
Section |  min time  |  avg time  |  max time  |%varavg| %total
---------------------------------------------------------------
Pair    | 0.016646   | 0.016646   | 0.016646   |   0.0 | 47.18
Bond    | 5.9605e-06 | 5.9605e-06 | 5.9605e-06 |   0.0 |  0.02
Neigh   | 0.01731    | 0.01731    | 0.01731    |   0.0 | 49.06
Comm    | 0.00045824 | 0.00045824 | 0.00045824 |   0.0 |  1.30
Output  | 9.0599e-06 | 9.0599e-06 | 9.0599e-06 |   0.0 |  0.03
Modify  | 0.00037432 | 0.00037432 | 0.00037432 |   0.0 |  1.06
Other   |            | 0.0004821  |            |       |  1.37

Nlocal:    8887 ave 8887 max 8887 min
Histogram: 1 0 0 0 0 0 0 0 0 0
Nghost:    4323 ave 4323 max 4323 min
Histogram: 1 0 0 0 0 0 0 0 0 0
Neighs:    185689 ave 185689 max 185689 min
Histogram: 1 0 0 0 0 0 0 0 0 0

Total # of neighbors = 185689
Ave neighs/atom = 20.8945
Ave special neighs/atom = 0.00540115
Neighbor list builds = 1
Dangerous builds = 0
run 10
Per MPI rank memory allocation (min/avg/max) = 11.84 | 11.84 | 11.84 Mbytes
c_com[1] c_com[2] c_com[3] 
   24.227689    24.098654    15.277682 
   24.242833    24.099816    15.293275 
Loop time of 0.0342131 on 1 procs for 10 steps with 8887 atoms

Performance: 252535.098 tau/day, 292.286 timesteps/s
102.3% CPU use with 1 MPI tasks x no OpenMP threads

MPI task timing breakdown:
Section |  min time  |  avg time  |  max time  |%varavg| %total
---------------------------------------------------------------
Pair    | 0.016531   | 0.016531   | 0.016531   |   0.0 | 48.32
Bond    | 5.0068e-06 | 5.0068e-06 | 5.0068e-06 |   0.0 |  0.01
Neigh   | 0.016389   | 0.016389   | 0.016389   |   0.0 | 47.90
Comm    | 0.00042248 | 0.00042248 | 0.00042248 |   0.0 |  1.23
Output  | 1.0014e-05 | 1.0014e-05 | 1.0014e-05 |   0.0 |  0.03
Modify  | 0.00035763 | 0.00035763 | 0.00035763 |   0.0 |  1.05
Other   |            | 0.0004976  |            |       |  1.45

Nlocal:    8887 ave 8887 max 8887 min
Histogram: 1 0 0 0 0 0 0 0 0 0
Nghost:    4323 ave 4323 max 4323 min
Histogram: 1 0 0 0 0 0 0 0 0 0
Neighs:    185689 ave 185689 max 185689 min
Histogram: 1 0 0 0 0 0 0 0 0 0

Total # of neighbors = 185689
Ave neighs/atom = 20.8945
Ave special neighs/atom = 0.00540115
Neighbor list builds = 1
Dangerous builds = 0
run 10
Per MPI rank memory allocation (min/avg/max) = 11.84 | 11.84 | 11.84 Mbytes
c_com[1] c_com[2] c_com[3] 
   24.242833    24.099816    15.293275 
   24.267811    24.085765    15.291829 
Loop time of 0.033546 on 1 procs for 10 steps with 8887 atoms

Performance: 257557.011 tau/day, 298.098 timesteps/s
101.3% CPU use with 1 MPI tasks x no OpenMP threads

MPI task timing breakdown:
Section |  min time  |  avg time  |  max time  |%varavg| %total
---------------------------------------------------------------
Pair    | 0.016229   | 0.016229   | 0.016229   |   0.0 | 48.38
Bond    | 7.391e-06  | 7.391e-06  | 7.391e-06  |   0.0 |  0.02
Neigh   | 0.016035   | 0.016035   | 0.016035   |   0.0 | 47.80
Comm    | 0.00043988 | 0.00043988 | 0.00043988 |   0.0 |  1.31
Output  | 8.8215e-06 | 8.8215e-06 | 8.8215e-06 |   0.0 |  0.03
Modify  | 0.00035214 | 0.00035214 | 0.00035214 |   0.0 |  1.05
Other   |            | 0.000474   |            |       |  1.41

Nlocal:    8887 ave 8887 max 8887 min
Histogram: 1 0 0 0 0 0 0 0 0 0
Nghost:    4323 ave 4323 max 4323 min
Histogram: 1 0 0 0 0 0 0 0 0 0
Neighs:    185689 ave 185689 max 185689 min
Histogram: 1 0 0 0 0 0 0 0 0 0

Total # of neighbors = 185689
Ave neighs/atom = 20.8945
Ave special neighs/atom = 0.00540115
Neighbor list builds = 1
Dangerous builds = 0
run 10
Per MPI rank memory allocation (min/avg/max) = 11.84 | 11.84 | 11.84 Mbytes
c_com[1] c_com[2] c_com[3] 
   24.267811    24.085765    15.291829 
   24.276422    24.062954    15.296351 
Loop time of 0.0333622 on 1 procs for 10 steps with 8887 atoms

Performance: 258976.114 tau/day, 299.741 timesteps/s
101.9% CPU use with 1 MPI tasks x no OpenMP threads

MPI task timing breakdown:
Section |  min time  |  avg time  |  max time  |%varavg| %total
---------------------------------------------------------------
Pair    | 0.016029   | 0.016029   | 0.016029   |   0.0 | 48.04
Bond    | 3.0994e-06 | 3.0994e-06 | 3.0994e-06 |   0.0 |  0.01
Neigh   | 0.016062   | 0.016062   | 0.016062   |   0.0 | 48.14
Comm    | 0.00042152 | 0.00042152 | 0.00042152 |   0.0 |  1.26
Output  | 8.8215e-06 | 8.8215e-06 | 8.8215e-06 |   0.0 |  0.03
Modify  | 0.00036931 | 0.00036931 | 0.00036931 |   0.0 |  1.11
Other   |            | 0.0004687  |            |       |  1.40

Nlocal:    8887 ave 8887 max 8887 min
Histogram: 1 0 0 0 0 0 0 0 0 0
Nghost:    4323 ave 4323 max 4323 min
Histogram: 1 0 0 0 0 0 0 0 0 0
Neighs:    185689 ave 185689 max 185689 min
Histogram: 1 0 0 0 0 0 0 0 0 0

Total # of neighbors = 185689
Ave neighs/atom = 20.8945
Ave special neighs/atom = 0.00540115
Neighbor list builds = 1
Dangerous builds = 0
run 10
Per MPI rank memory allocation (min/avg/max) = 11.84 | 11.84 | 11.84 Mbytes
c_com[1] c_com[2] c_com[3] 
   24.276422    24.062954    15.296351 
   24.296872    24.030032    15.311895 
Loop time of 0.03385 on 1 procs for 10 steps with 8887 atoms

Performance: 255244.065 tau/day, 295.421 timesteps/s
100.4% CPU use with 1 MPI tasks x no OpenMP threads

MPI task timing breakdown:
Section |  min time  |  avg time  |  max time  |%varavg| %total
---------------------------------------------------------------
Pair    | 0.0161     | 0.0161     | 0.0161     |   0.0 | 47.56
Bond    | 6.6757e-06 | 6.6757e-06 | 6.6757e-06 |   0.0 |  0.02
Neigh   | 0.016439   | 0.016439   | 0.016439   |   0.0 | 48.56
Comm    | 0.0004437  | 0.0004437  | 0.0004437  |   0.0 |  1.31
Output  | 1.0014e-05 | 1.0014e-05 | 1.0014e-05 |   0.0 |  0.03
Modify  | 0.0003767  | 0.0003767  | 0.0003767  |   0.0 |  1.11
Other   |            | 0.0004742  |            |       |  1.40

Nlocal:    8887 ave 8887 max 8887 min
Histogram: 1 0 0 0 0 0 0 0 0 0
Nghost:    4323 ave 4323 max 4323 min
Histogram: 1 0 0 0 0 0 0 0 0 0
Neighs:    185689 ave 185689 max 185689 min
Histogram: 1 0 0 0 0 0 0 0 0 0

Total # of neighbors = 185689
Ave neighs/atom = 20.8945
Ave special neighs/atom = 0.00540115
Neighbor list builds = 1
Dangerous builds = 0
run 10
Per MPI rank memory allocation (min/avg/max) = 11.84 | 11.84 | 11.84 Mbytes
c_com[1] c_com[2] c_com[3] 
   24.296872    24.030032    15.311895 
   24.330572    23.993794    15.329636 
Loop time of 0.0327821 on 1 procs for 10 steps with 8887 atoms

Performance: 263558.645 tau/day, 305.045 timesteps/s
100.6% CPU use with 1 MPI tasks x no OpenMP threads

MPI task timing breakdown:
Section |  min time  |  avg time  |  max time  |%varavg| %total
---------------------------------------------------------------
Pair    | 0.015735   | 0.015735   | 0.015735   |   0.0 | 48.00
Bond    | 5.0068e-06 | 5.0068e-06 | 5.0068e-06 |   0.0 |  0.02
Neigh   | 0.015778   | 0.015778   | 0.015778   |   0.0 | 48.13
Comm    | 0.00041413 | 0.00041413 | 0.00041413 |   0.0 |  1.26
Output  | 8.8215e-06 | 8.8215e-06 | 8.8215e-06 |   0.0 |  0.03
Modify  | 0.00035167 | 0.00035167 | 0.00035167 |   0.0 |  1.07
Other   |            | 0.000489   |            |       |  1.49

Nlocal:    8887 ave 8887 max 8887 min
Histogram: 1 0 0 0 0 0 0 0 0 0
Nghost:    4323 ave 4323 max 4323 min
Histogram: 1 0 0 0 0 0 0 0 0 0
Neighs:    185689 ave 185689 max 185689 min
Histogram: 1 0 0 0 0 0 0 0 0 0

Total # of neighbors = 185689
Ave neighs/atom = 20.8945
Ave special neighs/atom = 0.00540115
Neighbor list builds = 1
Dangerous builds = 0
