LAMMPS (31 Mar 2017)
# Sample LAMMPS script for modulating the probability that a hexamer passes
# a pore with pulling force on a LJ wall, under Langevin dynamics

# settings
# a 3D 60 box
variable      x equal 60
variable      y equal 30
variable      z equal 30
# temperature t = 1
variable      t equal 1
#variable      rho equal 0.7
neigh_modify  delay 0 check yes one 200000 page 2000000


# System setup

units         lj
dimension     3
atom_style    bond
bond_style    harmonic
pair_style    lj/cut 3
processors    1 4 6
read_data     data.polymer
  orthogonal box = (0 0 0) to (60 30 30)
  1 by 4 by 6 MPI processor grid
  reading atoms ...
  8887 atoms
  scanning bonds ...
  1 = max bonds/atom
  reading bonds ...
  9 bonds
  2 = max # of 1-2 neighbors
  2 = max # of 1-3 neighbors
  4 = max # of 1-4 neighbors
  6 = max # of special neighbors

# LJ pairs

# lattice       fcc ${rho}
# region        simbox block 0 $x 0 $y 0 $z
#create_box    1 simbox
region        void cylinder x 15 15 2 29 31
#region        wall block 29 31 0 30 0 30



#create_atoms  3 region wall
#delete_atoms  region void
pair_coeff    1 2 2.5 1
pair_coeff    1 3 2.5 1 1.12
pair_coeff    2 3 2.5 1 1.12

velocity      all create $t 97287
velocity      all create 1 97287


# Read bond/position info
group         polymer type 1 2
10 atoms in group polymer
group         first type 1
1 atoms in group first
region        box block 0 $x 0 $y 0 $z
region        box block 0 60 0 $y 0 $z
region        box block 0 60 0 30 0 $z
region        box block 0 60 0 30 0 30
region        spherein sphere 29 15 15 2
region        boxin block 27 29 13 17 13 17
region        hemiin intersect 2 boxin spherein
region        print block 29 31 12 18 12 18
group         print region print
300 atoms in group print
#region        sphereout sphere 31 15 15 2
#region        boxout block 31 33 13 17 13 17
#region        hemiout intersect 2 boxout sphereout


# Create forces
#variable      ftotal equal fcm(polymer,x)
fix           1 polymer nve
fix           2 polymer langevin $t $t 1 1209
fix           2 polymer langevin 1 $t 1 1209
fix           2 polymer langevin 1 1 1 1209
timestep      0.01
# equilibration run
thermo        1000
compute       com polymer com
thermo_style custom c_com[1] c_com[2] c_com[3]
fix           3 polymer spring tether 1 25.4 NULL NULL 0
run           5000
Neighbor list info ...
  update every 1 steps, delay 0 steps, check yes
  max neighbors/atom: 200000, page size: 2000000
  master list distance cutoff = 3.3
  ghost atom cutoff = 3.3
  binsize = 1.65, bins = 37 19 19
  1 neighbor lists, perpetual/occasional/extra = 1 0 0
  (1) pair lj/cut, perpetual
      attributes: half, newton on
      pair build: half/bin/newton
      stencil: half/bin/3d/newton
      bin: standard
Per MPI rank memory allocation (min/avg/max) = 11.37 | 11.38 | 11.49 Mbytes
c_com[1] c_com[2] c_com[3] 
        17.5           15           15 
   21.911715    14.131519    14.752076 
    24.26244    15.110686    15.650653 
   26.133766     16.80813     14.77233 
     25.0526    17.146886    15.629473 
   25.257267    18.334134    16.752964 
Loop time of 1.68973 on 24 procs for 5000 steps with 8887 atoms

Performance: 2556618.348 tau/day, 2959.049 timesteps/s
86.6% CPU use with 24 MPI tasks x no OpenMP threads

MPI task timing breakdown:
Section |  min time  |  avg time  |  max time  |%varavg| %total
---------------------------------------------------------------
Pair    | 0.41732    | 0.46989    | 0.50765    |   3.0 | 27.81
Bond    | 0.00068521 | 0.00086166 | 0.0013816  |   0.0 |  0.05
Neigh   | 0.71838    | 0.73878    | 0.74681    |   0.6 | 43.72
Comm    | 0.32644    | 0.36867    | 0.42097    |   3.3 | 21.82
Output  | 8.297e-05  | 8.7718e-05 | 9.203e-05  |   0.0 |  0.01
Modify  | 0.043773   | 0.057586   | 0.075624   |   3.0 |  3.41
Other   |            | 0.05385    |            |       |  3.19

Nlocal:    370.292 ave 375 max 342 min
Histogram: 3 0 0 1 0 0 0 0 0 20
Nghost:    1220.17 ave 1236 max 1137 min
Histogram: 1 3 0 0 0 0 0 0 0 20
Neighs:    7737.04 ave 7984 max 6870 min
Histogram: 2 0 2 0 0 0 0 0 10 10

Total # of neighbors = 185689
Ave neighs/atom = 20.8945
Ave special neighs/atom = 0.00540115
Neighbor list builds = 811
Dangerous builds = 0
unfix         3
reset_timestep 0
fix 3 polymer smoothforce 29 31 0.15 1 3
change_box    all boundary f p p
fix 4 polymer wall/reflect xlo 21.5 xhi 39.5
thermo        10


run 10
Per MPI rank memory allocation (min/avg/max) = 11.37 | 11.39 | 11.48 Mbytes
c_com[1] c_com[2] c_com[3] 
   25.257267    18.334134    16.752964 
   25.255164    18.363436    16.737999 
Loop time of 0.00260355 on 24 procs for 10 steps with 8887 atoms

Performance: 3318544.873 tau/day, 3840.908 timesteps/s
84.8% CPU use with 24 MPI tasks x no OpenMP threads

MPI task timing breakdown:
Section |  min time  |  avg time  |  max time  |%varavg| %total
---------------------------------------------------------------
Pair    | 0.00083756 | 0.00093909 | 0.0010083  |   0.0 | 36.07
Bond    | 0          | 1.6888e-06 | 6.1989e-06 |   0.0 |  0.06
Neigh   | 0.0008502  | 0.00085705 | 0.00086308 |   0.0 | 32.92
Comm    | 0.00054407 | 0.00060812 | 0.00069952 |   0.0 | 23.36
Output  | 1.4067e-05 | 1.7186e-05 | 1.9073e-05 |   0.0 |  0.66
Modify  | 2.1696e-05 | 2.4964e-05 | 4.3154e-05 |   0.0 |  0.96
Other   |            | 0.0001555  |            |       |  5.97

Nlocal:    370.292 ave 375 max 342 min
Histogram: 3 0 0 1 0 0 0 0 0 20
Nghost:    1220.38 ave 1237 max 1138 min
Histogram: 1 3 0 0 0 0 0 0 0 20
Neighs:    7737.04 ave 7984 max 6870 min
Histogram: 2 0 2 0 0 0 0 0 10 10

Total # of neighbors = 185689
Ave neighs/atom = 20.8945
Ave special neighs/atom = 0.00540115
Neighbor list builds = 1
Dangerous builds = 0
run 10
Per MPI rank memory allocation (min/avg/max) = 11.37 | 11.39 | 11.48 Mbytes
c_com[1] c_com[2] c_com[3] 
   25.255164    18.363436    16.737999 
   25.255055    18.388118    16.722774 
Loop time of 0.00259156 on 24 procs for 10 steps with 8887 atoms

Performance: 3333898.907 tau/day, 3858.679 timesteps/s
93.2% CPU use with 24 MPI tasks x no OpenMP threads

MPI task timing breakdown:
Section |  min time  |  avg time  |  max time  |%varavg| %total
---------------------------------------------------------------
Pair    | 0.00083899 | 0.00093685 | 0.0010016  |   0.0 | 36.15
Bond    | 0          | 1.9968e-06 | 6.1989e-06 |   0.0 |  0.08
Neigh   | 0.00085306 | 0.00085596 | 0.00086093 |   0.0 | 33.03
Comm    | 0.00052857 | 0.00059609 | 0.00067163 |   0.0 | 23.00
Output  | 1.5974e-05 | 1.7693e-05 | 2.0027e-05 |   0.0 |  0.68
Modify  | 2.0504e-05 | 2.4915e-05 | 4.0531e-05 |   0.0 |  0.96
Other   |            | 0.0001581  |            |       |  6.10

Nlocal:    370.292 ave 375 max 342 min
Histogram: 3 0 0 1 0 0 0 0 0 20
Nghost:    1220.08 ave 1236 max 1136 min
Histogram: 1 3 0 0 0 0 0 0 0 20
Neighs:    7737.04 ave 7984 max 6870 min
Histogram: 2 0 2 0 0 0 0 0 10 10

Total # of neighbors = 185689
Ave neighs/atom = 20.8945
Ave special neighs/atom = 0.00540115
Neighbor list builds = 1
Dangerous builds = 0
run 10
Per MPI rank memory allocation (min/avg/max) = 11.37 | 11.39 | 11.48 Mbytes
c_com[1] c_com[2] c_com[3] 
   25.255055    18.388118    16.722774 
   25.271628     18.40517     16.69541 
Loop time of 0.00264516 on 24 procs for 10 steps with 8887 atoms

Performance: 3266337.218 tau/day, 3780.483 timesteps/s
89.8% CPU use with 24 MPI tasks x no OpenMP threads

MPI task timing breakdown:
Section |  min time  |  avg time  |  max time  |%varavg| %total
---------------------------------------------------------------
Pair    | 0.00084186 | 0.00094164 | 0.00099611 |   0.0 | 35.60
Bond    | 0          | 1.5001e-06 | 4.2915e-06 |   0.0 |  0.06
Neigh   | 0.00084901 | 0.00085254 | 0.00085878 |   0.0 | 32.23
Comm    | 0.00056362 | 0.00061756 | 0.00069976 |   0.0 | 23.35
Output  | 1.502e-05  | 1.8299e-05 | 2.2173e-05 |   0.0 |  0.69
Modify  | 2.1219e-05 | 2.5163e-05 | 4.1962e-05 |   0.0 |  0.95
Other   |            | 0.0001885  |            |       |  7.12

Nlocal:    370.292 ave 375 max 342 min
Histogram: 3 0 0 1 0 0 0 0 0 20
Nghost:    1220 ave 1236 max 1135 min
Histogram: 2 2 0 0 0 0 0 0 0 20
Neighs:    7737.04 ave 7984 max 6870 min
Histogram: 2 0 2 0 0 0 0 0 10 10

Total # of neighbors = 185689
Ave neighs/atom = 20.8945
Ave special neighs/atom = 0.00540115
Neighbor list builds = 1
Dangerous builds = 0
run 10
Per MPI rank memory allocation (min/avg/max) = 11.37 | 11.39 | 11.48 Mbytes
c_com[1] c_com[2] c_com[3] 
   25.271628     18.40517     16.69541 
   25.303073    18.411222    16.663711 
Loop time of 0.00258042 on 24 procs for 10 steps with 8887 atoms

Performance: 3348286.754 tau/day, 3875.332 timesteps/s
79.1% CPU use with 24 MPI tasks x no OpenMP threads

MPI task timing breakdown:
Section |  min time  |  avg time  |  max time  |%varavg| %total
---------------------------------------------------------------
Pair    | 0.00084233 | 0.00093626 | 0.0010054  |   0.0 | 36.28
Bond    | 0          | 2.1358e-06 | 3.8147e-06 |   0.0 |  0.08
Neigh   | 0.00085092 | 0.00085525 | 0.00085902 |   0.0 | 33.14
Comm    | 0.00053096 | 0.00060103 | 0.00068259 |   0.0 | 23.29
Output  | 1.5974e-05 | 1.8835e-05 | 2.1935e-05 |   0.0 |  0.73
Modify  | 2.2173e-05 | 2.5262e-05 | 4.1962e-05 |   0.0 |  0.98
Other   |            | 0.0001417  |            |       |  5.49

Nlocal:    370.292 ave 375 max 342 min
Histogram: 3 0 0 1 0 0 0 0 0 20
Nghost:    1219.96 ave 1236 max 1135 min
Histogram: 2 2 0 0 0 0 0 0 0 20
Neighs:    7737.04 ave 7984 max 6870 min
Histogram: 2 0 2 0 0 0 0 0 10 10

Total # of neighbors = 185689
Ave neighs/atom = 20.8945
Ave special neighs/atom = 0.00540115
Neighbor list builds = 1
Dangerous builds = 0
run 10
Per MPI rank memory allocation (min/avg/max) = 11.37 | 11.39 | 11.48 Mbytes
c_com[1] c_com[2] c_com[3] 
   25.303073    18.411222    16.663711 
     25.3368    18.422798    16.621512 
Loop time of 0.00258016 on 24 procs for 10 steps with 8887 atoms

Performance: 3348634.826 tau/day, 3875.735 timesteps/s
104.9% CPU use with 24 MPI tasks x no OpenMP threads

MPI task timing breakdown:
Section |  min time  |  avg time  |  max time  |%varavg| %total
---------------------------------------------------------------
Pair    | 0.00084186 | 0.00093632 | 0.00099874 |   0.0 | 36.29
Bond    | 0          | 1.808e-06  | 5.9605e-06 |   0.0 |  0.07
Neigh   | 0.00085211 | 0.00085758 | 0.00086403 |   0.0 | 33.24
Comm    | 0.00052786 | 0.00059546 | 0.00067306 |   0.0 | 23.08
Output  | 1.5974e-05 | 1.8537e-05 | 2.408e-05  |   0.0 |  0.72
Modify  | 2.0742e-05 | 2.5014e-05 | 4.0054e-05 |   0.0 |  0.97
Other   |            | 0.0001454  |            |       |  5.64

Nlocal:    370.292 ave 375 max 342 min
Histogram: 3 0 0 1 0 0 0 0 0 20
Nghost:    1219.88 ave 1236 max 1134 min
Histogram: 2 1 1 0 0 0 0 0 0 20
Neighs:    7737.04 ave 7984 max 6870 min
Histogram: 2 0 2 0 0 0 0 0 10 10

Total # of neighbors = 185689
Ave neighs/atom = 20.8945
Ave special neighs/atom = 0.00540115
Neighbor list builds = 1
Dangerous builds = 0
run 10
Per MPI rank memory allocation (min/avg/max) = 11.37 | 11.39 | 11.48 Mbytes
c_com[1] c_com[2] c_com[3] 
     25.3368    18.422798    16.621512 
   25.358907    18.443366    16.574242 
Loop time of 0.0025518 on 24 procs for 10 steps with 8887 atoms

Performance: 3385839.997 tau/day, 3918.796 timesteps/s
83.3% CPU use with 24 MPI tasks x no OpenMP threads

MPI task timing breakdown:
Section |  min time  |  avg time  |  max time  |%varavg| %total
---------------------------------------------------------------
Pair    | 0.00083756 | 0.00093447 | 0.00099564 |   0.0 | 36.62
Bond    | 0          | 1.4901e-06 | 4.2915e-06 |   0.0 |  0.06
Neigh   | 0.00084686 | 0.00085099 | 0.00085783 |   0.0 | 33.35
Comm    | 0.00053191 | 0.00059582 | 0.00067043 |   0.0 | 23.35
Output  | 1.5974e-05 | 1.9302e-05 | 2.1935e-05 |   0.0 |  0.76
Modify  | 2.0504e-05 | 2.4627e-05 | 4.0293e-05 |   0.0 |  0.97
Other   |            | 0.0001251  |            |       |  4.90

Nlocal:    370.292 ave 375 max 342 min
Histogram: 3 0 0 1 0 0 0 0 0 20
Nghost:    1219.88 ave 1236 max 1134 min
Histogram: 2 1 1 0 0 0 0 0 0 20
Neighs:    7737.04 ave 7984 max 6870 min
Histogram: 2 0 2 0 0 0 0 0 10 10

Total # of neighbors = 185689
Ave neighs/atom = 20.8945
Ave special neighs/atom = 0.00540115
Neighbor list builds = 1
Dangerous builds = 0
run 10
Per MPI rank memory allocation (min/avg/max) = 11.37 | 11.39 | 11.48 Mbytes
c_com[1] c_com[2] c_com[3] 
   25.358907    18.443366    16.574242 
   25.361721    18.466447    16.527114 
Loop time of 0.00255302 on 24 procs for 10 steps with 8887 atoms

Performance: 3384232.679 tau/day, 3916.936 timesteps/s
89.7% CPU use with 24 MPI tasks x no OpenMP threads

MPI task timing breakdown:
Section |  min time  |  avg time  |  max time  |%varavg| %total
---------------------------------------------------------------
Pair    | 0.0008316  | 0.00093502 | 0.0010023  |   0.0 | 36.62
Bond    | 0          | 1.4901e-06 | 3.8147e-06 |   0.0 |  0.06
Neigh   | 0.00085306 | 0.00085737 | 0.00086594 |   0.0 | 33.58
Comm    | 0.00052571 | 0.00059919 | 0.00067496 |   0.0 | 23.47
Output  | 1.502e-05  | 1.7722e-05 | 2.2888e-05 |   0.0 |  0.69
Modify  | 2.0266e-05 | 2.4666e-05 | 4.0293e-05 |   0.0 |  0.97
Other   |            | 0.0001176  |            |       |  4.60

Nlocal:    370.292 ave 375 max 342 min
Histogram: 3 0 0 1 0 0 0 0 0 20
Nghost:    1219.88 ave 1236 max 1134 min
Histogram: 2 1 1 0 0 0 0 0 0 20
Neighs:    7737.04 ave 7984 max 6870 min
Histogram: 2 0 2 0 0 0 0 0 10 10

Total # of neighbors = 185689
Ave neighs/atom = 20.8945
Ave special neighs/atom = 0.00540115
Neighbor list builds = 1
Dangerous builds = 0
run 10
Per MPI rank memory allocation (min/avg/max) = 11.37 | 11.39 | 11.48 Mbytes
c_com[1] c_com[2] c_com[3] 
   25.361721    18.466447    16.527114 
   25.367855    18.493982     16.46879 
Loop time of 0.00255185 on 24 procs for 10 steps with 8887 atoms

Performance: 3385774.093 tau/day, 3918.720 timesteps/s
96.3% CPU use with 24 MPI tasks x no OpenMP threads

MPI task timing breakdown:
Section |  min time  |  avg time  |  max time  |%varavg| %total
---------------------------------------------------------------
Pair    | 0.00084043 | 0.00093788 | 0.00099874 |   0.0 | 36.75
Bond    | 0          | 1.7186e-06 | 4.7684e-06 |   0.0 |  0.07
Neigh   | 0.00085092 | 0.00085542 | 0.00086093 |   0.0 | 33.52
Comm    | 0.00052977 | 0.00059197 | 0.00067639 |   0.0 | 23.20
Output  | 1.502e-05  | 1.7901e-05 | 2.0981e-05 |   0.0 |  0.70
Modify  | 2.0504e-05 | 2.5123e-05 | 4.3154e-05 |   0.0 |  0.98
Other   |            | 0.0001218  |            |       |  4.77

Nlocal:    370.292 ave 375 max 342 min
Histogram: 3 0 0 1 0 0 0 0 0 20
Nghost:    1219.83 ave 1235 max 1134 min
Histogram: 2 1 1 0 0 0 0 0 0 20
Neighs:    7737.04 ave 7984 max 6870 min
Histogram: 2 0 2 0 0 0 0 0 10 10

Total # of neighbors = 185689
Ave neighs/atom = 20.8945
Ave special neighs/atom = 0.00540115
Neighbor list builds = 1
Dangerous builds = 0
run 10
Per MPI rank memory allocation (min/avg/max) = 11.37 | 11.39 | 11.48 Mbytes
c_com[1] c_com[2] c_com[3] 
   25.367855    18.493982     16.46879 
   25.379804    18.526672    16.406812 
Loop time of 0.00258008 on 24 procs for 10 steps with 8887 atoms

Performance: 3348737.972 tau/day, 3875.854 timesteps/s
88.8% CPU use with 24 MPI tasks x no OpenMP threads

MPI task timing breakdown:
Section |  min time  |  avg time  |  max time  |%varavg| %total
---------------------------------------------------------------
Pair    | 0.00083995 | 0.00094041 | 0.0009985  |   0.0 | 36.45
Bond    | 0          | 1.6491e-06 | 5.0068e-06 |   0.0 |  0.06
Neigh   | 0.00084805 | 0.00085375 | 0.00085807 |   0.0 | 33.09
Comm    | 0.00054502 | 0.00061054 | 0.0006876  |   0.0 | 23.66
Output  | 1.502e-05  | 2.0723e-05 | 2.9087e-05 |   0.0 |  0.80
Modify  | 2.1219e-05 | 2.5392e-05 | 4.22e-05   |   0.0 |  0.98
Other   |            | 0.0001276  |            |       |  4.95

Nlocal:    370.292 ave 375 max 342 min
Histogram: 3 0 0 1 0 0 0 0 0 20
Nghost:    1219.83 ave 1235 max 1134 min
Histogram: 2 1 1 0 0 0 0 0 0 20
Neighs:    7737.04 ave 7984 max 6870 min
Histogram: 2 0 2 0 0 0 0 0 10 10

Total # of neighbors = 185689
Ave neighs/atom = 20.8945
Ave special neighs/atom = 0.00540115
Neighbor list builds = 1
Dangerous builds = 0
run 10
Per MPI rank memory allocation (min/avg/max) = 11.37 | 11.39 | 11.48 Mbytes
c_com[1] c_com[2] c_com[3] 
   25.379804    18.526672    16.406812 
   25.403233    18.557865    16.344363 
Loop time of 0.00255635 on 24 procs for 10 steps with 8887 atoms

Performance: 3379813.848 tau/day, 3911.822 timesteps/s
86.4% CPU use with 24 MPI tasks x no OpenMP threads

MPI task timing breakdown:
Section |  min time  |  avg time  |  max time  |%varavg| %total
---------------------------------------------------------------
Pair    | 0.00084305 | 0.00093779 | 0.00099993 |   0.0 | 36.68
Bond    | 0          | 1.4603e-06 | 5.2452e-06 |   0.0 |  0.06
Neigh   | 0.00084519 | 0.00084908 | 0.00085306 |   0.0 | 33.21
Comm    | 0.00053525 | 0.00059998 | 0.00066948 |   0.0 | 23.47
Output  | 1.812e-05  | 2.0206e-05 | 2.3127e-05 |   0.0 |  0.79
Modify  | 2.1458e-05 | 2.4815e-05 | 4.1962e-05 |   0.0 |  0.97
Other   |            | 0.000123   |            |       |  4.81

Nlocal:    370.292 ave 375 max 342 min
Histogram: 3 0 0 1 0 0 0 0 0 20
Nghost:    1219.92 ave 1235 max 1135 min
Histogram: 1 2 1 0 0 0 0 0 0 20
Neighs:    7737.04 ave 7984 max 6870 min
Histogram: 2 0 2 0 0 0 0 0 10 10

Total # of neighbors = 185689
Ave neighs/atom = 20.8945
Ave special neighs/atom = 0.00540115
Neighbor list builds = 1
Dangerous builds = 0
run 10
Per MPI rank memory allocation (min/avg/max) = 11.37 | 11.39 | 11.48 Mbytes
c_com[1] c_com[2] c_com[3] 
   25.403233    18.557865    16.344363 
   25.421233    18.588423    16.299997 
Loop time of 0.00259847 on 24 procs for 10 steps with 8887 atoms

Performance: 3325027.918 tau/day, 3848.412 timesteps/s
93.0% CPU use with 24 MPI tasks x no OpenMP threads

MPI task timing breakdown:
Section |  min time  |  avg time  |  max time  |%varavg| %total
---------------------------------------------------------------
Pair    | 0.0008471  | 0.00094153 | 0.0010133  |   0.0 | 36.23
Bond    | 0          | 1.8477e-06 | 4.0531e-06 |   0.0 |  0.07
Neigh   | 0.00085306 | 0.00086016 | 0.00086594 |   0.0 | 33.10
Comm    | 0.0005281  | 0.00061252 | 0.00069356 |   0.0 | 23.57
Output  | 1.3828e-05 | 1.9302e-05 | 3.0041e-05 |   0.0 |  0.74
Modify  | 2.0504e-05 | 2.5759e-05 | 4.2915e-05 |   0.0 |  0.99
Other   |            | 0.0001373  |            |       |  5.29

Nlocal:    370.292 ave 375 max 342 min
Histogram: 3 0 0 1 0 0 0 0 0 20
Nghost:    1219.83 ave 1235 max 1134 min
Histogram: 2 1 1 0 0 0 0 0 0 20
Neighs:    7737.04 ave 7984 max 6870 min
Histogram: 2 0 2 0 0 0 0 0 10 10

Total # of neighbors = 185689
Ave neighs/atom = 20.8945
Ave special neighs/atom = 0.00540115
Neighbor list builds = 1
Dangerous builds = 0
run 10
Per MPI rank memory allocation (min/avg/max) = 11.37 | 11.39 | 11.48 Mbytes
c_com[1] c_com[2] c_com[3] 
   25.421233    18.588423    16.299997 
   25.420596    18.642466    16.254067 
Loop time of 0.00257372 on 24 procs for 10 steps with 8887 atoms

Performance: 3357010.323 tau/day, 3885.429 timesteps/s
82.6% CPU use with 24 MPI tasks x no OpenMP threads

MPI task timing breakdown:
Section |  min time  |  avg time  |  max time  |%varavg| %total
---------------------------------------------------------------
Pair    | 0.00084066 | 0.00093649 | 0.00099611 |   0.0 | 36.39
Bond    | 0          | 1.6292e-06 | 4.0531e-06 |   0.0 |  0.06
Neigh   | 0.00085402 | 0.000857   | 0.00086498 |   0.0 | 33.30
Comm    | 0.00052857 | 0.00060403 | 0.00068331 |   0.0 | 23.47
Output  | 1.4067e-05 | 1.954e-05  | 2.6941e-05 |   0.0 |  0.76
Modify  | 2.0742e-05 | 2.4805e-05 | 4.4584e-05 |   0.0 |  0.96
Other   |            | 0.0001302  |            |       |  5.06

Nlocal:    370.292 ave 375 max 342 min
Histogram: 3 0 0 1 0 0 0 0 0 20
Nghost:    1219.92 ave 1235 max 1135 min
Histogram: 1 2 1 0 0 0 0 0 0 20
Neighs:    7737.04 ave 7984 max 6870 min
Histogram: 2 0 2 0 0 0 0 0 10 10

Total # of neighbors = 185689
Ave neighs/atom = 20.8945
Ave special neighs/atom = 0.00540115
Neighbor list builds = 1
Dangerous builds = 0
run 10
Per MPI rank memory allocation (min/avg/max) = 11.37 | 11.39 | 11.48 Mbytes
c_com[1] c_com[2] c_com[3] 
   25.420596    18.642466    16.254067 
   25.402068    18.679724    16.210878 
Loop time of 0.00255611 on 24 procs for 10 steps with 8887 atoms

Performance: 3380142.233 tau/day, 3912.202 timesteps/s
79.9% CPU use with 24 MPI tasks x no OpenMP threads

MPI task timing breakdown:
Section |  min time  |  avg time  |  max time  |%varavg| %total
---------------------------------------------------------------
Pair    | 0.00083733 | 0.00093802 | 0.0010018  |   0.0 | 36.70
Bond    | 0          | 1.4106e-06 | 4.2915e-06 |   0.0 |  0.06
Neigh   | 0.00085306 | 0.00085726 | 0.00086498 |   0.0 | 33.54
Comm    | 0.00053334 | 0.00060064 | 0.00068879 |   0.0 | 23.50
Output  | 1.4067e-05 | 1.6779e-05 | 1.9073e-05 |   0.0 |  0.66
Modify  | 2.1696e-05 | 2.5014e-05 | 4.3869e-05 |   0.0 |  0.98
Other   |            | 0.000117   |            |       |  4.58

Nlocal:    370.292 ave 375 max 342 min
Histogram: 3 0 0 1 0 0 0 0 0 20
Nghost:    1219.83 ave 1235 max 1134 min
Histogram: 2 1 1 0 0 0 0 0 0 20
Neighs:    7737.04 ave 7984 max 6870 min
Histogram: 2 0 2 0 0 0 0 0 10 10

Total # of neighbors = 185689
Ave neighs/atom = 20.8945
Ave special neighs/atom = 0.00540115
Neighbor list builds = 1
Dangerous builds = 0
run 10
Per MPI rank memory allocation (min/avg/max) = 11.37 | 11.39 | 11.48 Mbytes
c_com[1] c_com[2] c_com[3] 
   25.402068    18.679724    16.210878 
   25.388128    18.718601    16.175905 
Loop time of 0.00258003 on 24 procs for 10 steps with 8887 atoms

Performance: 3348802.442 tau/day, 3875.929 timesteps/s
92.0% CPU use with 24 MPI tasks x no OpenMP threads

MPI task timing breakdown:
Section |  min time  |  avg time  |  max time  |%varavg| %total
---------------------------------------------------------------
Pair    | 0.00083876 | 0.00093763 | 0.0010071  |   0.0 | 36.34
Bond    | 0          | 1.6391e-06 | 5.9605e-06 |   0.0 |  0.06
Neigh   | 0.00085306 | 0.00085751 | 0.00086308 |   0.0 | 33.24
Comm    | 0.00051546 | 0.00060913 | 0.00068665 |   0.0 | 23.61
Output  | 1.5974e-05 | 1.9908e-05 | 2.718e-05  |   0.0 |  0.77
Modify  | 2.1458e-05 | 2.5123e-05 | 4.5776e-05 |   0.0 |  0.97
Other   |            | 0.0001291  |            |       |  5.00

Nlocal:    370.292 ave 375 max 342 min
Histogram: 3 0 0 1 0 0 0 0 0 20
Nghost:    1219.83 ave 1235 max 1134 min
Histogram: 2 1 1 0 0 0 0 0 0 20
Neighs:    7737.04 ave 7984 max 6870 min
Histogram: 2 0 2 0 0 0 0 0 10 10

Total # of neighbors = 185689
Ave neighs/atom = 20.8945
Ave special neighs/atom = 0.00540115
Neighbor list builds = 1
Dangerous builds = 0
run 10
Per MPI rank memory allocation (min/avg/max) = 11.37 | 11.39 | 11.48 Mbytes
c_com[1] c_com[2] c_com[3] 
   25.388128    18.718601    16.175905 
   25.382126    18.753252    16.163048 
Loop time of 0.00255913 on 24 procs for 10 steps with 8887 atoms

Performance: 3376153.400 tau/day, 3907.585 timesteps/s
91.2% CPU use with 24 MPI tasks x no OpenMP threads

MPI task timing breakdown:
Section |  min time  |  avg time  |  max time  |%varavg| %total
---------------------------------------------------------------
Pair    | 0.00084233 | 0.00093895 | 0.0010102  |   0.0 | 36.69
Bond    | 0          | 1.5696e-06 | 4.2915e-06 |   0.0 |  0.06
Neigh   | 0.00084901 | 0.00085407 | 0.00086188 |   0.0 | 33.37
Comm    | 0.00053215 | 0.00060102 | 0.00067973 |   0.0 | 23.49
Output  | 1.3828e-05 | 1.7097e-05 | 2.0027e-05 |   0.0 |  0.67
Modify  | 1.9789e-05 | 2.4388e-05 | 4.1723e-05 |   0.0 |  0.95
Other   |            | 0.000122   |            |       |  4.77

Nlocal:    370.292 ave 375 max 342 min
Histogram: 3 0 0 1 0 0 0 0 0 20
Nghost:    1219.75 ave 1236 max 1133 min
Histogram: 2 1 1 0 0 0 0 0 0 20
Neighs:    7737.04 ave 7984 max 6870 min
Histogram: 2 0 2 0 0 0 0 0 10 10

Total # of neighbors = 185689
Ave neighs/atom = 20.8945
Ave special neighs/atom = 0.00540115
Neighbor list builds = 1
Dangerous builds = 0
run 10
Per MPI rank memory allocation (min/avg/max) = 11.37 | 11.39 | 11.48 Mbytes
c_com[1] c_com[2] c_com[3] 
   25.382126    18.753252    16.163048 
   25.385353    18.789043    16.174397 
Loop time of 0.00260204 on 24 procs for 10 steps with 8887 atoms

Performance: 3320470.650 tau/day, 3843.137 timesteps/s
86.5% CPU use with 24 MPI tasks x no OpenMP threads

MPI task timing breakdown:
Section |  min time  |  avg time  |  max time  |%varavg| %total
---------------------------------------------------------------
Pair    | 0.00084615 | 0.00093924 | 0.00099564 |   0.0 | 36.10
Bond    | 0          | 1.7087e-06 | 5.9605e-06 |   0.0 |  0.07
Neigh   | 0.00084901 | 0.00085332 | 0.00085998 |   0.0 | 32.79
Comm    | 0.00057244 | 0.00063366 | 0.00069976 |   0.0 | 24.35
Output  | 1.5974e-05 | 1.7325e-05 | 2.0027e-05 |   0.0 |  0.67
Modify  | 2.1935e-05 | 2.4925e-05 | 4.077e-05  |   0.0 |  0.96
Other   |            | 0.0001319  |            |       |  5.07

Nlocal:    370.292 ave 375 max 342 min
Histogram: 3 0 0 1 0 0 0 0 0 20
Nghost:    1219.79 ave 1236 max 1133 min
Histogram: 2 1 1 0 0 0 0 0 0 20
Neighs:    7737.04 ave 7984 max 6870 min
Histogram: 2 0 2 0 0 0 0 0 10 10

Total # of neighbors = 185689
Ave neighs/atom = 20.8945
Ave special neighs/atom = 0.00540115
Neighbor list builds = 1
Dangerous builds = 0
run 10
Per MPI rank memory allocation (min/avg/max) = 11.37 | 11.39 | 11.48 Mbytes
c_com[1] c_com[2] c_com[3] 
   25.385353    18.789043    16.174397 
   25.397935    18.825308     16.19266 
Loop time of 0.00262364 on 24 procs for 10 steps with 8887 atoms

Performance: 3293137.845 tau/day, 3811.502 timesteps/s
88.9% CPU use with 24 MPI tasks x no OpenMP threads

MPI task timing breakdown:
Section |  min time  |  avg time  |  max time  |%varavg| %total
---------------------------------------------------------------
Pair    | 0.00084496 | 0.00094066 | 0.0010452  |   0.0 | 35.85
Bond    | 0          | 1.5299e-06 | 3.3379e-06 |   0.0 |  0.06
Neigh   | 0.0008781  | 0.00088304 | 0.00089192 |   0.0 | 33.66
Comm    | 0.00054312 | 0.00062749 | 0.00070882 |   0.0 | 23.92
Output  | 1.502e-05  | 1.8537e-05 | 2.1935e-05 |   0.0 |  0.71
Modify  | 2.0027e-05 | 2.4607e-05 | 4.22e-05   |   0.0 |  0.94
Other   |            | 0.0001278  |            |       |  4.87

Nlocal:    370.292 ave 375 max 342 min
Histogram: 3 0 0 1 0 0 0 0 0 20
Nghost:    1219.79 ave 1236 max 1133 min
Histogram: 2 1 1 0 0 0 0 0 0 20
Neighs:    7737.04 ave 7984 max 6870 min
Histogram: 2 0 2 0 0 0 0 0 10 10

Total # of neighbors = 185689
Ave neighs/atom = 20.8945
Ave special neighs/atom = 0.00540115
Neighbor list builds = 1
Dangerous builds = 0
run 10
Per MPI rank memory allocation (min/avg/max) = 11.37 | 11.39 | 11.48 Mbytes
c_com[1] c_com[2] c_com[3] 
   25.397935    18.825308     16.19266 
   25.414596    18.874208    16.209696 
Loop time of 0.00258863 on 24 procs for 10 steps with 8887 atoms

Performance: 3337673.181 tau/day, 3863.048 timesteps/s
90.1% CPU use with 24 MPI tasks x no OpenMP threads

MPI task timing breakdown:
Section |  min time  |  avg time  |  max time  |%varavg| %total
---------------------------------------------------------------
Pair    | 0.00084448 | 0.00094102 | 0.0010121  |   0.0 | 36.35
Bond    | 0          | 1.7782e-06 | 5.0068e-06 |   0.0 |  0.07
Neigh   | 0.00085211 | 0.00085944 | 0.00086498 |   0.0 | 33.20
Comm    | 0.00055361 | 0.00062183 | 0.00069833 |   0.0 | 24.02
Output  | 1.2875e-05 | 1.6699e-05 | 2.0027e-05 |   0.0 |  0.65
Modify  | 2.0742e-05 | 2.3862e-05 | 3.7909e-05 |   0.0 |  0.92
Other   |            | 0.000124   |            |       |  4.79

Nlocal:    370.292 ave 375 max 342 min
Histogram: 3 0 0 1 0 0 0 0 0 20
Nghost:    1219.79 ave 1237 max 1133 min
Histogram: 2 1 1 0 0 0 0 0 0 20
Neighs:    7737.04 ave 7984 max 6870 min
Histogram: 2 0 2 0 0 0 0 0 10 10

Total # of neighbors = 185689
Ave neighs/atom = 20.8945
Ave special neighs/atom = 0.00540115
Neighbor list builds = 1
Dangerous builds = 0
run 10
Per MPI rank memory allocation (min/avg/max) = 11.37 | 11.39 | 11.48 Mbytes
c_com[1] c_com[2] c_com[3] 
   25.414596    18.874208    16.209696 
   25.445018    18.918511    16.236684 
Loop time of 0.00255176 on 24 procs for 10 steps with 8887 atoms

Performance: 3385892.721 tau/day, 3918.857 timesteps/s
88.2% CPU use with 24 MPI tasks x no OpenMP threads

MPI task timing breakdown:
Section |  min time  |  avg time  |  max time  |%varavg| %total
---------------------------------------------------------------
Pair    | 0.00083947 | 0.00093825 | 0.00099611 |   0.0 | 36.77
Bond    | 0          | 1.4504e-06 | 4.7684e-06 |   0.0 |  0.06
Neigh   | 0.00085092 | 0.00085471 | 0.00086284 |   0.0 | 33.49
Comm    | 0.00052691 | 0.00059494 | 0.00067496 |   0.0 | 23.31
Output  | 1.7166e-05 | 1.8398e-05 | 2.0981e-05 |   0.0 |  0.72
Modify  | 2.1696e-05 | 2.4726e-05 | 3.9816e-05 |   0.0 |  0.97
Other   |            | 0.0001193  |            |       |  4.67

Nlocal:    370.292 ave 375 max 342 min
Histogram: 3 0 0 1 0 0 0 0 0 20
Nghost:    1219.88 ave 1238 max 1133 min
Histogram: 2 1 1 0 0 0 0 0 0 20
Neighs:    7737.04 ave 7984 max 6870 min
Histogram: 2 0 2 0 0 0 0 0 10 10

Total # of neighbors = 185689
Ave neighs/atom = 20.8945
Ave special neighs/atom = 0.00540115
Neighbor list builds = 1
Dangerous builds = 0
run 10
Per MPI rank memory allocation (min/avg/max) = 11.37 | 11.39 | 11.48 Mbytes
c_com[1] c_com[2] c_com[3] 
   25.445018    18.918511    16.236684 
    25.48121    18.978757    16.252636 
Loop time of 0.00259155 on 24 procs for 10 steps with 8887 atoms

Performance: 3333911.687 tau/day, 3858.694 timesteps/s
77.2% CPU use with 24 MPI tasks x no OpenMP threads

MPI task timing breakdown:
Section |  min time  |  avg time  |  max time  |%varavg| %total
---------------------------------------------------------------
Pair    | 0.0008409  | 0.00093961 | 0.00099826 |   0.0 | 36.26
Bond    | 0          | 1.6193e-06 | 4.0531e-06 |   0.0 |  0.06
Neigh   | 0.00084686 | 0.00085257 | 0.00085902 |   0.0 | 32.90
Comm    | 0.00054264 | 0.00062691 | 0.00069499 |   0.0 | 24.19
Output  | 1.4782e-05 | 1.7504e-05 | 2.0981e-05 |   0.0 |  0.68
Modify  | 2.0742e-05 | 2.5253e-05 | 4.4584e-05 |   0.0 |  0.97
Other   |            | 0.0001281  |            |       |  4.94

Nlocal:    370.292 ave 375 max 342 min
Histogram: 3 0 0 1 0 0 0 0 0 20
Nghost:    1220.08 ave 1239 max 1134 min
Histogram: 2 1 1 0 0 0 0 0 0 20
Neighs:    7737.04 ave 7984 max 6870 min
Histogram: 2 0 2 0 0 0 0 0 10 10

Total # of neighbors = 185689
Ave neighs/atom = 20.8945
Ave special neighs/atom = 0.00540115
Neighbor list builds = 1
Dangerous builds = 0
run 10
Per MPI rank memory allocation (min/avg/max) = 11.37 | 11.39 | 11.48 Mbytes
c_com[1] c_com[2] c_com[3] 
    25.48121    18.978757    16.252636 
   25.524253    19.060698    16.270229 
Loop time of 0.00255663 on 24 procs for 10 steps with 8887 atoms

Performance: 3379446.133 tau/day, 3911.396 timesteps/s
83.1% CPU use with 24 MPI tasks x no OpenMP threads

MPI task timing breakdown:
Section |  min time  |  avg time  |  max time  |%varavg| %total
---------------------------------------------------------------
Pair    | 0.00084376 | 0.00093861 | 0.0010021  |   0.0 | 36.71
Bond    | 0          | 1.4305e-06 | 5.4836e-06 |   0.0 |  0.06
Neigh   | 0.00084996 | 0.00085578 | 0.00086212 |   0.0 | 33.47
Comm    | 0.00053167 | 0.0005989  | 0.0006721  |   0.0 | 23.43
Output  | 1.6928e-05 | 1.9232e-05 | 2.2173e-05 |   0.0 |  0.75
Modify  | 2.0981e-05 | 2.5054e-05 | 4.53e-05   |   0.0 |  0.98
Other   |            | 0.0001176  |            |       |  4.60

Nlocal:    370.292 ave 375 max 342 min
Histogram: 3 0 0 1 0 0 0 0 0 20
Nghost:    1219.92 ave 1239 max 1132 min
Histogram: 2 1 1 0 0 0 0 0 0 20
Neighs:    7737.04 ave 7984 max 6870 min
Histogram: 2 0 2 0 0 0 0 0 10 10

Total # of neighbors = 185689
Ave neighs/atom = 20.8945
Ave special neighs/atom = 0.00540115
Neighbor list builds = 1
Dangerous builds = 0
run 10
Per MPI rank memory allocation (min/avg/max) = 11.37 | 11.39 | 11.48 Mbytes
c_com[1] c_com[2] c_com[3] 
   25.524253    19.060698    16.270229 
   25.555453    19.133325    16.293056 
Loop time of 0.00261483 on 24 procs for 10 steps with 8887 atoms

Performance: 3304235.203 tau/day, 3824.346 timesteps/s
92.4% CPU use with 24 MPI tasks x no OpenMP threads

MPI task timing breakdown:
Section |  min time  |  avg time  |  max time  |%varavg| %total
---------------------------------------------------------------
Pair    | 0.000844   | 0.00094225 | 0.001035   |   0.0 | 36.03
Bond    | 0          | 1.7087e-06 | 5.2452e-06 |   0.0 |  0.07
Neigh   | 0.00085902 | 0.00086478 | 0.0008719  |   0.0 | 33.07
Comm    | 0.00055933 | 0.00063298 | 0.00071549 |   0.0 | 24.21
Output  | 1.502e-05  | 1.8646e-05 | 2.0981e-05 |   0.0 |  0.71
Modify  | 2.1219e-05 | 2.5411e-05 | 4.7684e-05 |   0.0 |  0.97
Other   |            | 0.000129   |            |       |  4.94

Nlocal:    370.292 ave 375 max 342 min
Histogram: 3 0 0 1 0 0 0 0 0 20
Nghost:    1220 ave 1240 max 1132 min
Histogram: 2 1 1 0 0 0 0 0 0 20
Neighs:    7737.04 ave 7984 max 6870 min
Histogram: 2 0 2 0 0 0 0 0 10 10

Total # of neighbors = 185689
Ave neighs/atom = 20.8945
Ave special neighs/atom = 0.00540115
Neighbor list builds = 1
Dangerous builds = 0
run 10
Per MPI rank memory allocation (min/avg/max) = 11.37 | 11.39 | 11.48 Mbytes
c_com[1] c_com[2] c_com[3] 
   25.555453    19.133325    16.293056 
   25.586517    19.206757    16.311636 
Loop time of 0.00255728 on 24 procs for 10 steps with 8887 atoms

Performance: 3378592.817 tau/day, 3910.408 timesteps/s
92.9% CPU use with 24 MPI tasks x no OpenMP threads

MPI task timing breakdown:
Section |  min time  |  avg time  |  max time  |%varavg| %total
---------------------------------------------------------------
Pair    | 0.00084496 | 0.00093875 | 0.0010064  |   0.0 | 36.71
Bond    | 0          | 1.7683e-06 | 4.2915e-06 |   0.0 |  0.07
Neigh   | 0.00085497 | 0.00085907 | 0.00086617 |   0.0 | 33.59
Comm    | 0.00052357 | 0.00059702 | 0.00066543 |   0.0 | 23.35
Output  | 1.3828e-05 | 1.7524e-05 | 2.2173e-05 |   0.0 |  0.69
Modify  | 2.1219e-05 | 2.4796e-05 | 4.7922e-05 |   0.0 |  0.97
Other   |            | 0.0001183  |            |       |  4.63

Nlocal:    370.292 ave 375 max 342 min
Histogram: 3 0 0 1 0 0 0 0 0 20
Nghost:    1220.08 ave 1240 max 1132 min
Histogram: 2 1 1 0 0 0 0 0 0 20
Neighs:    7737.04 ave 7984 max 6870 min
Histogram: 2 0 2 0 0 0 0 0 10 10

Total # of neighbors = 185689
Ave neighs/atom = 20.8945
Ave special neighs/atom = 0.00540115
Neighbor list builds = 1
Dangerous builds = 0
run 10
Per MPI rank memory allocation (min/avg/max) = 11.37 | 11.39 | 11.48 Mbytes
c_com[1] c_com[2] c_com[3] 
   25.586517    19.206757    16.311636 
   25.607399    19.284877    16.320858 
Loop time of 0.00354457 on 24 procs for 10 steps with 8887 atoms

Performance: 2437531.887 tau/day, 2821.217 timesteps/s
90.5% CPU use with 24 MPI tasks x no OpenMP threads

MPI task timing breakdown:
Section |  min time  |  avg time  |  max time  |%varavg| %total
---------------------------------------------------------------
Pair    | 0.00085759 | 0.00095385 | 0.0010114  |   0.0 | 26.91
Bond    | 0          | 1.4305e-06 | 5.0068e-06 |   0.0 |  0.04
Neigh   | 0.0016999  | 0.0017106  | 0.001725   |   0.0 | 48.26
Comm    | 0.00063252 | 0.0006964  | 0.00076985 |   0.0 | 19.65
Output  | 1.5974e-05 | 1.8756e-05 | 2.3127e-05 |   0.0 |  0.53
Modify  | 2.1935e-05 | 2.5064e-05 | 4.4107e-05 |   0.0 |  0.71
Other   |            | 0.0001385  |            |       |  3.91

Nlocal:    370.292 ave 375 max 342 min
Histogram: 3 0 0 1 0 0 0 0 0 20
Nghost:    1220.12 ave 1240 max 1132 min
Histogram: 2 1 1 0 0 0 0 0 0 20
Neighs:    7737.04 ave 7984 max 6870 min
Histogram: 2 0 2 0 0 0 0 0 10 10

Total # of neighbors = 185689
Ave neighs/atom = 20.8945
Ave special neighs/atom = 0.00540115
Neighbor list builds = 2
Dangerous builds = 0
run 10
Per MPI rank memory allocation (min/avg/max) = 11.37 | 11.39 | 11.48 Mbytes
c_com[1] c_com[2] c_com[3] 
   25.607399    19.284877    16.320858 
   25.615299    19.380056    16.308635 
Loop time of 0.00258966 on 24 procs for 10 steps with 8887 atoms

Performance: 3336341.615 tau/day, 3861.506 timesteps/s
90.1% CPU use with 24 MPI tasks x no OpenMP threads

MPI task timing breakdown:
Section |  min time  |  avg time  |  max time  |%varavg| %total
---------------------------------------------------------------
Pair    | 0.00084472 | 0.00093845 | 0.0010037  |   0.0 | 36.24
Bond    | 0          | 1.2815e-06 | 4.0531e-06 |   0.0 |  0.05
Neigh   | 0.00085378 | 0.00085733 | 0.00086379 |   0.0 | 33.11
Comm    | 0.00056744 | 0.0006301  | 0.00071192 |   0.0 | 24.33
Output  | 1.502e-05  | 1.7027e-05 | 2.0027e-05 |   0.0 |  0.66
Modify  | 2.0742e-05 | 2.4537e-05 | 4.673e-05  |   0.0 |  0.95
Other   |            | 0.0001209  |            |       |  4.67

Nlocal:    370.292 ave 375 max 342 min
Histogram: 3 0 0 1 0 0 0 0 0 20
Nghost:    1220.21 ave 1241 max 1132 min
Histogram: 2 1 1 0 0 0 0 0 0 20
Neighs:    7737.04 ave 7984 max 6870 min
Histogram: 2 0 2 0 0 0 0 0 10 10

Total # of neighbors = 185689
Ave neighs/atom = 20.8945
Ave special neighs/atom = 0.00540115
Neighbor list builds = 1
Dangerous builds = 0
run 10
Per MPI rank memory allocation (min/avg/max) = 11.37 | 11.39 | 11.48 Mbytes
c_com[1] c_com[2] c_com[3] 
   25.615299    19.380056    16.308635 
   25.614711    19.495284    16.278778 
Loop time of 0.0025423 on 24 procs for 10 steps with 8887 atoms

Performance: 3398501.373 tau/day, 3933.451 timesteps/s
93.4% CPU use with 24 MPI tasks x no OpenMP threads

MPI task timing breakdown:
Section |  min time  |  avg time  |  max time  |%varavg| %total
---------------------------------------------------------------
Pair    | 0.00084281 | 0.00093774 | 0.001004   |   0.0 | 36.89
Bond    | 0          | 1.8477e-06 | 5.2452e-06 |   0.0 |  0.07
Neigh   | 0.00084996 | 0.00085315 | 0.00085998 |   0.0 | 33.56
Comm    | 0.00052547 | 0.00059404 | 0.00068569 |   0.0 | 23.37
Output  | 1.502e-05  | 1.6451e-05 | 1.9073e-05 |   0.0 |  0.65
Modify  | 1.9312e-05 | 2.4835e-05 | 4.2915e-05 |   0.0 |  0.98
Other   |            | 0.0001142  |            |       |  4.49

Nlocal:    370.292 ave 375 max 342 min
Histogram: 3 0 0 1 0 0 0 0 0 20
Nghost:    1220.38 ave 1242 max 1132 min
Histogram: 2 1 1 0 0 0 0 0 0 20
Neighs:    7737.04 ave 7984 max 6870 min
Histogram: 2 0 2 0 0 0 0 0 10 10

Total # of neighbors = 185689
Ave neighs/atom = 20.8945
Ave special neighs/atom = 0.00540115
Neighbor list builds = 1
Dangerous builds = 0
run 10
Per MPI rank memory allocation (min/avg/max) = 11.37 | 11.39 | 11.48 Mbytes
c_com[1] c_com[2] c_com[3] 
   25.614711    19.495284    16.278778 
   25.614938    19.600137    16.253716 
Loop time of 0.00258902 on 24 procs for 10 steps with 8887 atoms

Performance: 3337173.719 tau/day, 3862.470 timesteps/s
75.6% CPU use with 24 MPI tasks x no OpenMP threads

MPI task timing breakdown:
Section |  min time  |  avg time  |  max time  |%varavg| %total
---------------------------------------------------------------
Pair    | 0.00084233 | 0.00093803 | 0.00099683 |   0.0 | 36.23
Bond    | 0          | 1.8676e-06 | 5.2452e-06 |   0.0 |  0.07
Neigh   | 0.00084901 | 0.00085482 | 0.00085902 |   0.0 | 33.02
Comm    | 0.00056267 | 0.00062869 | 0.00069833 |   0.0 | 24.28
Output  | 1.4067e-05 | 1.7067e-05 | 2.0027e-05 |   0.0 |  0.66
Modify  | 2.0742e-05 | 2.4895e-05 | 4.5061e-05 |   0.0 |  0.96
Other   |            | 0.0001236  |            |       |  4.78

Nlocal:    370.292 ave 375 max 342 min
Histogram: 3 0 0 1 0 0 0 0 0 20
Nghost:    1220.46 ave 1243 max 1132 min
Histogram: 2 1 1 0 0 0 0 0 0 20
Neighs:    7737.04 ave 7984 max 6870 min
Histogram: 2 0 2 0 0 0 0 0 10 10

Total # of neighbors = 185689
Ave neighs/atom = 20.8945
Ave special neighs/atom = 0.00540115
Neighbor list builds = 1
Dangerous builds = 0
run 10
Per MPI rank memory allocation (min/avg/max) = 11.37 | 11.39 | 11.48 Mbytes
c_com[1] c_com[2] c_com[3] 
   25.614938    19.600137    16.253716 
   25.630952    19.688988     16.24692 
Loop time of 0.00347501 on 24 procs for 10 steps with 8887 atoms

Performance: 2486323.498 tau/day, 2877.689 timesteps/s
86.3% CPU use with 24 MPI tasks x no OpenMP threads

MPI task timing breakdown:
Section |  min time  |  avg time  |  max time  |%varavg| %total
---------------------------------------------------------------
Pair    | 0.00085282 | 0.00094897 | 0.001009   |   0.0 | 27.31
Bond    | 0          | 1.5895e-06 | 5.2452e-06 |   0.0 |  0.05
Neigh   | 0.0016949  | 0.0017058  | 0.0017171  |   0.0 | 49.09
Comm    | 0.00059128 | 0.00065128 | 0.00072384 |   0.0 | 18.74
Output  | 1.7881e-05 | 1.9451e-05 | 2.2173e-05 |   0.0 |  0.56
Modify  | 2.0981e-05 | 2.4964e-05 | 4.6015e-05 |   0.0 |  0.72
Other   |            | 0.000123   |            |       |  3.54

Nlocal:    370.292 ave 375 max 342 min
Histogram: 3 0 0 1 0 0 0 0 0 20
Nghost:    1220.46 ave 1243 max 1132 min
Histogram: 2 1 1 0 0 0 0 0 0 20
Neighs:    7737.04 ave 7984 max 6870 min
Histogram: 2 0 2 0 0 0 0 0 10 10

Total # of neighbors = 185689
Ave neighs/atom = 20.8945
Ave special neighs/atom = 0.00540115
Neighbor list builds = 2
Dangerous builds = 0
run 10
Per MPI rank memory allocation (min/avg/max) = 11.37 | 11.39 | 11.48 Mbytes
c_com[1] c_com[2] c_com[3] 
   25.630952    19.688988     16.24692 
   25.637798    19.763747    16.235342 
Loop time of 0.00351253 on 24 procs for 10 steps with 8887 atoms

Performance: 2459764.405 tau/day, 2846.950 timesteps/s
87.8% CPU use with 24 MPI tasks x no OpenMP threads

MPI task timing breakdown:
Section |  min time  |  avg time  |  max time  |%varavg| %total
---------------------------------------------------------------
Pair    | 0.00084734 | 0.00095141 | 0.0010223  |   0.0 | 27.09
Bond    | 0          | 2.0961e-06 | 4.7684e-06 |   0.0 |  0.06
Neigh   | 0.001688   | 0.001699   | 0.001708   |   0.0 | 48.37
Comm    | 0.00060749 | 0.0006836  | 0.00077271 |   0.0 | 19.46
Output  | 1.6928e-05 | 1.9242e-05 | 2.3127e-05 |   0.0 |  0.55
Modify  | 1.955e-05  | 2.417e-05  | 4.5538e-05 |   0.0 |  0.69
Other   |            | 0.000133   |            |       |  3.79

Nlocal:    370.292 ave 375 max 342 min
Histogram: 3 0 0 1 0 0 0 0 0 20
Nghost:    1220.38 ave 1243 max 1132 min
Histogram: 2 1 1 0 0 0 0 0 0 20
Neighs:    7737.04 ave 7984 max 6870 min
Histogram: 2 0 2 0 0 0 0 0 10 10

Total # of neighbors = 185689
Ave neighs/atom = 20.8945
Ave special neighs/atom = 0.00540115
Neighbor list builds = 2
Dangerous builds = 0
run 10
Per MPI rank memory allocation (min/avg/max) = 11.37 | 11.39 | 11.48 Mbytes
c_com[1] c_com[2] c_com[3] 
   25.637798    19.763747    16.235342 
   25.629296     19.83125    16.236426 
Loop time of 0.00258395 on 24 procs for 10 steps with 8887 atoms

Performance: 3343716.970 tau/day, 3870.043 timesteps/s
93.5% CPU use with 24 MPI tasks x no OpenMP threads

MPI task timing breakdown:
Section |  min time  |  avg time  |  max time  |%varavg| %total
---------------------------------------------------------------
Pair    | 0.00084686 | 0.00094475 | 0.0010307  |   0.0 | 36.56
Bond    | 0          | 1.2815e-06 | 3.0994e-06 |   0.0 |  0.05
Neigh   | 0.00085092 | 0.00085558 | 0.00086284 |   0.0 | 33.11
Comm    | 0.00052762 | 0.00061629 | 0.00069356 |   0.0 | 23.85
Output  | 1.502e-05  | 1.8964e-05 | 2.3127e-05 |   0.0 |  0.73
Modify  | 2.1935e-05 | 2.5133e-05 | 4.22e-05   |   0.0 |  0.97
Other   |            | 0.0001219  |            |       |  4.72

Nlocal:    370.292 ave 375 max 342 min
Histogram: 3 0 0 1 0 0 0 0 0 20
Nghost:    1220.38 ave 1243 max 1132 min
Histogram: 2 1 1 0 0 0 0 0 0 20
Neighs:    7737.04 ave 7984 max 6870 min
Histogram: 2 0 2 0 0 0 0 0 10 10

Total # of neighbors = 185689
Ave neighs/atom = 20.8945
Ave special neighs/atom = 0.00540115
Neighbor list builds = 1
Dangerous builds = 0
run 10
Per MPI rank memory allocation (min/avg/max) = 11.37 | 11.39 | 11.48 Mbytes
c_com[1] c_com[2] c_com[3] 
   25.629296     19.83125    16.236426 
   25.605527    19.899682    16.228954 
Loop time of 0.00351943 on 24 procs for 10 steps with 8887 atoms

Performance: 2454945.925 tau/day, 2841.373 timesteps/s
92.3% CPU use with 24 MPI tasks x no OpenMP threads

MPI task timing breakdown:
Section |  min time  |  avg time  |  max time  |%varavg| %total
---------------------------------------------------------------
Pair    | 0.00086021 | 0.00095833 | 0.0010462  |   0.0 | 27.23
Bond    | 0          | 1.8775e-06 | 4.2915e-06 |   0.0 |  0.05
Neigh   | 0.0017078  | 0.0017162  | 0.0017321  |   0.0 | 48.76
Comm    | 0.00059056 | 0.00066467 | 0.00075984 |   0.0 | 18.89
Output  | 1.5974e-05 | 2.0385e-05 | 2.8133e-05 |   0.0 |  0.58
Modify  | 2.0981e-05 | 2.5272e-05 | 4.3392e-05 |   0.0 |  0.72
Other   |            | 0.0001327  |            |       |  3.77

Nlocal:    370.292 ave 375 max 342 min
Histogram: 3 0 0 1 0 0 0 0 0 20
Nghost:    1220.38 ave 1243 max 1132 min
Histogram: 2 1 1 0 0 0 0 0 0 20
Neighs:    7737.04 ave 7984 max 6870 min
Histogram: 2 0 2 0 0 0 0 0 10 10

Total # of neighbors = 185689
Ave neighs/atom = 20.8945
Ave special neighs/atom = 0.00540115
Neighbor list builds = 2
Dangerous builds = 0
run 10
Per MPI rank memory allocation (min/avg/max) = 11.37 | 11.39 | 11.48 Mbytes
c_com[1] c_com[2] c_com[3] 
   25.605527    19.899682    16.228954 
   25.572098    19.958174    16.215974 
Loop time of 0.00254573 on 24 procs for 10 steps with 8887 atoms

Performance: 3393912.782 tau/day, 3928.140 timesteps/s
101.5% CPU use with 24 MPI tasks x no OpenMP threads

MPI task timing breakdown:
Section |  min time  |  avg time  |  max time  |%varavg| %total
---------------------------------------------------------------
Pair    | 0.00083828 | 0.00093725 | 0.0010037  |   0.0 | 36.82
Bond    | 0          | 1.8477e-06 | 4.2915e-06 |   0.0 |  0.07
Neigh   | 0.00085306 | 0.00085736 | 0.00086379 |   0.0 | 33.68
Comm    | 0.00052023 | 0.00059331 | 0.00067306 |   0.0 | 23.31
Output  | 1.5974e-05 | 1.8587e-05 | 2.1935e-05 |   0.0 |  0.73
Modify  | 2.0742e-05 | 2.4488e-05 | 4.4107e-05 |   0.0 |  0.96
Other   |            | 0.0001129  |            |       |  4.43

Nlocal:    370.292 ave 375 max 342 min
Histogram: 3 0 0 1 0 0 0 0 0 20
Nghost:    1220.38 ave 1244 max 1132 min
Histogram: 2 1 1 0 0 0 0 0 3 17
Neighs:    7737.04 ave 7984 max 6870 min
Histogram: 2 0 2 0 0 0 0 0 10 10

Total # of neighbors = 185689
Ave neighs/atom = 20.8945
Ave special neighs/atom = 0.00540115
Neighbor list builds = 1
Dangerous builds = 0
run 10
Per MPI rank memory allocation (min/avg/max) = 11.37 | 11.39 | 11.48 Mbytes
c_com[1] c_com[2] c_com[3] 
   25.572098    19.958174    16.215974 
   25.544123    20.022998    16.219343 
Loop time of 0.003562 on 24 procs for 10 steps with 8887 atoms

Performance: 2425601.296 tau/day, 2807.409 timesteps/s
84.2% CPU use with 24 MPI tasks x no OpenMP threads

MPI task timing breakdown:
Section |  min time  |  avg time  |  max time  |%varavg| %total
---------------------------------------------------------------
Pair    | 0.00085878 | 0.00095559 | 0.0010109  |   0.0 | 26.83
Bond    | 0          | 1.9173e-06 | 4.0531e-06 |   0.0 |  0.05
Neigh   | 0.001704   | 0.0017139  | 0.001724   |   0.0 | 48.12
Comm    | 0.00060678 | 0.00069331 | 0.00077105 |   0.0 | 19.46
Output  | 1.5974e-05 | 1.7514e-05 | 2.0981e-05 |   0.0 |  0.49
Modify  | 2.1458e-05 | 2.5262e-05 | 4.6968e-05 |   0.0 |  0.71
Other   |            | 0.0001545  |            |       |  4.34

Nlocal:    370.292 ave 375 max 342 min
Histogram: 3 0 0 1 0 0 0 0 0 20
Nghost:    1220.46 ave 1245 max 1132 min
Histogram: 2 1 1 0 0 0 0 0 4 16
Neighs:    7737.04 ave 7984 max 6870 min
Histogram: 2 0 2 0 0 0 0 0 10 10

Total # of neighbors = 185689
Ave neighs/atom = 20.8945
Ave special neighs/atom = 0.00540115
Neighbor list builds = 2
Dangerous builds = 0
run 10
Per MPI rank memory allocation (min/avg/max) = 11.37 | 11.39 | 11.48 Mbytes
c_com[1] c_com[2] c_com[3] 
   25.544123    20.022998    16.219343 
   25.524913    20.086182    16.213794 
Loop time of 0.00255017 on 24 procs for 10 steps with 8887 atoms

Performance: 3388003.060 tau/day, 3921.300 timesteps/s
91.5% CPU use with 24 MPI tasks x no OpenMP threads

MPI task timing breakdown:
Section |  min time  |  avg time  |  max time  |%varavg| %total
---------------------------------------------------------------
Pair    | 0.00084352 | 0.00093788 | 0.0010023  |   0.0 | 36.78
Bond    | 0          | 1.6987e-06 | 4.53e-06   |   0.0 |  0.07
Neigh   | 0.0008471  | 0.0008516  | 0.00085711 |   0.0 | 33.39
Comm    | 0.00053716 | 0.00059821 | 0.00067759 |   0.0 | 23.46
Output  | 1.502e-05  | 1.8468e-05 | 2.1935e-05 |   0.0 |  0.72
Modify  | 2.1458e-05 | 2.4537e-05 | 4.53e-05   |   0.0 |  0.96
Other   |            | 0.0001178  |            |       |  4.62

Nlocal:    370.292 ave 375 max 342 min
Histogram: 3 0 0 1 0 0 0 0 0 20
Nghost:    1220.46 ave 1245 max 1132 min
Histogram: 2 1 1 0 0 0 0 0 4 16
Neighs:    7737.04 ave 7984 max 6870 min
Histogram: 2 0 2 0 0 0 0 0 10 10

Total # of neighbors = 185689
Ave neighs/atom = 20.8945
Ave special neighs/atom = 0.00540115
Neighbor list builds = 1
Dangerous builds = 0
run 10
Per MPI rank memory allocation (min/avg/max) = 11.37 | 11.39 | 11.48 Mbytes
c_com[1] c_com[2] c_com[3] 
   25.524913    20.086182    16.213794 
   25.497907    20.143697    16.198993 
Loop time of 0.00255315 on 24 procs for 10 steps with 8887 atoms

Performance: 3384061.498 tau/day, 3916.738 timesteps/s
80.0% CPU use with 24 MPI tasks x no OpenMP threads

MPI task timing breakdown:
Section |  min time  |  avg time  |  max time  |%varavg| %total
---------------------------------------------------------------
Pair    | 0.0008378  | 0.0009371  | 0.00099969 |   0.0 | 36.70
Bond    | 0          | 1.9868e-06 | 5.0068e-06 |   0.0 |  0.08
Neigh   | 0.00084805 | 0.00085353 | 0.00085998 |   0.0 | 33.43
Comm    | 0.00053167 | 0.00059873 | 0.00068045 |   0.0 | 23.45
Output  | 1.502e-05  | 1.7713e-05 | 2.0981e-05 |   0.0 |  0.69
Modify  | 2.0981e-05 | 2.5153e-05 | 4.4346e-05 |   0.0 |  0.99
Other   |            | 0.0001189  |            |       |  4.66

Nlocal:    370.292 ave 375 max 342 min
Histogram: 3 0 0 1 0 0 0 0 0 20
Nghost:    1220.54 ave 1245 max 1132 min
Histogram: 2 1 1 0 0 0 0 0 3 17
Neighs:    7737.04 ave 7984 max 6870 min
Histogram: 2 0 2 0 0 0 0 0 10 10

Total # of neighbors = 185689
Ave neighs/atom = 20.8945
Ave special neighs/atom = 0.00540115
Neighbor list builds = 1
Dangerous builds = 0
run 10
Per MPI rank memory allocation (min/avg/max) = 11.37 | 11.39 | 11.48 Mbytes
c_com[1] c_com[2] c_com[3] 
   25.497907    20.143697    16.198993 
    25.45665    20.192118    16.183632 
Loop time of 0.00254682 on 24 procs for 10 steps with 8887 atoms

Performance: 3392469.809 tau/day, 3926.470 timesteps/s
80.2% CPU use with 24 MPI tasks x no OpenMP threads

MPI task timing breakdown:
Section |  min time  |  avg time  |  max time  |%varavg| %total
---------------------------------------------------------------
Pair    | 0.00083995 | 0.00093481 | 0.00099993 |   0.0 | 36.71
Bond    | 0          | 1.6987e-06 | 5.722e-06  |   0.0 |  0.07
Neigh   | 0.000844   | 0.00085228 | 0.00085688 |   0.0 | 33.46
Comm    | 0.00052953 | 0.00059823 | 0.00067759 |   0.0 | 23.49
Output  | 1.5974e-05 | 1.8517e-05 | 2.408e-05  |   0.0 |  0.73
Modify  | 2.1219e-05 | 2.4478e-05 | 4.2439e-05 |   0.0 |  0.96
Other   |            | 0.0001168  |            |       |  4.59

Nlocal:    370.292 ave 375 max 342 min
Histogram: 3 0 0 1 0 0 0 0 0 20
Nghost:    1220.54 ave 1245 max 1132 min
Histogram: 2 1 1 0 0 0 0 0 3 17
Neighs:    7737.04 ave 7984 max 6870 min
Histogram: 2 0 2 0 0 0 0 0 10 10

Total # of neighbors = 185689
Ave neighs/atom = 20.8945
Ave special neighs/atom = 0.00540115
Neighbor list builds = 1
Dangerous builds = 0
run 10
Per MPI rank memory allocation (min/avg/max) = 11.37 | 11.39 | 11.48 Mbytes
c_com[1] c_com[2] c_com[3] 
    25.45665    20.192118    16.183632 
   25.421102    20.240897    16.140792 
Loop time of 0.00256995 on 24 procs for 10 steps with 8887 atoms

Performance: 3361928.401 tau/day, 3891.121 timesteps/s
94.0% CPU use with 24 MPI tasks x no OpenMP threads

MPI task timing breakdown:
Section |  min time  |  avg time  |  max time  |%varavg| %total
---------------------------------------------------------------
Pair    | 0.0008409  | 0.00094048 | 0.0010104  |   0.0 | 36.60
Bond    | 0          | 1.3014e-06 | 5.0068e-06 |   0.0 |  0.05
Neigh   | 0.000844   | 0.00085283 | 0.00086093 |   0.0 | 33.18
Comm    | 0.00052118 | 0.00061094 | 0.00068521 |   0.0 | 23.77
Output  | 1.502e-05  | 1.9342e-05 | 2.5034e-05 |   0.0 |  0.75
Modify  | 2.0742e-05 | 2.4666e-05 | 4.1962e-05 |   0.0 |  0.96
Other   |            | 0.0001204  |            |       |  4.68

Nlocal:    370.292 ave 375 max 342 min
Histogram: 3 0 0 1 0 0 0 0 0 20
Nghost:    1220.46 ave 1245 max 1132 min
Histogram: 2 1 1 0 0 0 0 0 4 16
Neighs:    7737.04 ave 7984 max 6870 min
Histogram: 2 0 2 0 0 0 0 0 10 10

Total # of neighbors = 185689
Ave neighs/atom = 20.8945
Ave special neighs/atom = 0.00540115
Neighbor list builds = 1
Dangerous builds = 0
run 10
Per MPI rank memory allocation (min/avg/max) = 11.37 | 11.39 | 11.48 Mbytes
c_com[1] c_com[2] c_com[3] 
   25.421102    20.240897    16.140792 
   25.402428    20.286002    16.077599 
Loop time of 0.00353502 on 24 procs for 10 steps with 8887 atoms

Performance: 2444114.683 tau/day, 2828.836 timesteps/s
89.6% CPU use with 24 MPI tasks x no OpenMP threads

MPI task timing breakdown:
Section |  min time  |  avg time  |  max time  |%varavg| %total
---------------------------------------------------------------
Pair    | 0.00085378 | 0.00095299 | 0.0010207  |   0.0 | 26.96
Bond    | 0          | 1.4901e-06 | 4.0531e-06 |   0.0 |  0.04
Neigh   | 0.0017118  | 0.0017187  | 0.0017321  |   0.0 | 48.62
Comm    | 0.00059199 | 0.00067926 | 0.00075769 |   0.0 | 19.22
Output  | 1.5974e-05 | 2.1845e-05 | 3.1948e-05 |   0.0 |  0.62
Modify  | 2.0742e-05 | 2.559e-05  | 4.673e-05  |   0.0 |  0.72
Other   |            | 0.0001352  |            |       |  3.82

Nlocal:    370.292 ave 375 max 342 min
Histogram: 3 0 0 1 0 0 0 0 0 20
Nghost:    1220.46 ave 1245 max 1132 min
Histogram: 2 1 1 0 0 0 0 0 4 16
Neighs:    7737.04 ave 7984 max 6870 min
Histogram: 2 0 2 0 0 0 0 0 10 10

Total # of neighbors = 185689
Ave neighs/atom = 20.8945
Ave special neighs/atom = 0.00540115
Neighbor list builds = 2
Dangerous builds = 0
run 10
Per MPI rank memory allocation (min/avg/max) = 11.37 | 11.39 | 11.48 Mbytes
c_com[1] c_com[2] c_com[3] 
   25.402428    20.286002    16.077599 
   25.390705    20.340004    16.014061 
Loop time of 0.00255007 on 24 procs for 10 steps with 8887 atoms

Performance: 3388148.242 tau/day, 3921.468 timesteps/s
102.9% CPU use with 24 MPI tasks x no OpenMP threads

MPI task timing breakdown:
Section |  min time  |  avg time  |  max time  |%varavg| %total
---------------------------------------------------------------
Pair    | 0.00083756 | 0.00093708 | 0.00099397 |   0.0 | 36.75
Bond    | 0          | 1.3709e-06 | 3.0994e-06 |   0.0 |  0.05
Neigh   | 0.00085402 | 0.0008591  | 0.00086713 |   0.0 | 33.69
Comm    | 0.00052667 | 0.00059146 | 0.00066042 |   0.0 | 23.19
Output  | 1.4067e-05 | 1.6749e-05 | 2.1935e-05 |   0.0 |  0.66
Modify  | 2.0981e-05 | 2.4716e-05 | 4.673e-05  |   0.0 |  0.97
Other   |            | 0.0001196  |            |       |  4.69

Nlocal:    370.292 ave 375 max 342 min
Histogram: 3 0 0 1 0 0 0 0 0 20
Nghost:    1220.46 ave 1245 max 1132 min
Histogram: 2 1 1 0 0 0 0 0 4 16
Neighs:    7737.04 ave 7984 max 6870 min
Histogram: 2 0 2 0 0 0 0 0 10 10

Total # of neighbors = 185689
Ave neighs/atom = 20.8945
Ave special neighs/atom = 0.00540115
Neighbor list builds = 1
Dangerous builds = 0
run 10
Per MPI rank memory allocation (min/avg/max) = 11.37 | 11.39 | 11.48 Mbytes
c_com[1] c_com[2] c_com[3] 
   25.390705    20.340004    16.014061 
   25.379953    20.386765    15.959546 
Loop time of 0.00256148 on 24 procs for 10 steps with 8887 atoms

Performance: 3373050.210 tau/day, 3903.993 timesteps/s
86.2% CPU use with 24 MPI tasks x no OpenMP threads

MPI task timing breakdown:
Section |  min time  |  avg time  |  max time  |%varavg| %total
---------------------------------------------------------------
Pair    | 0.00084257 | 0.00093647 | 0.00099778 |   0.0 | 36.56
Bond    | 0          | 2.0067e-06 | 5.2452e-06 |   0.0 |  0.08
Neigh   | 0.0008471  | 0.00085381 | 0.00085998 |   0.0 | 33.33
Comm    | 0.00053334 | 0.00059719 | 0.00067306 |   0.0 | 23.31
Output  | 1.6928e-05 | 1.96e-05   | 2.2173e-05 |   0.0 |  0.77
Modify  | 2.0742e-05 | 2.5173e-05 | 4.4107e-05 |   0.0 |  0.98
Other   |            | 0.0001272  |            |       |  4.97

Nlocal:    370.292 ave 375 max 341 min
Histogram: 1 2 0 0 1 0 0 0 0 20
Nghost:    1220.46 ave 1245 max 1132 min
Histogram: 2 1 1 0 0 0 0 0 4 16
Neighs:    7737.04 ave 7984 max 6873 min
Histogram: 2 0 2 0 0 0 0 0 10 10

Total # of neighbors = 185689
Ave neighs/atom = 20.8945
Ave special neighs/atom = 0.00540115
Neighbor list builds = 1
Dangerous builds = 0
run 10
Per MPI rank memory allocation (min/avg/max) = 11.37 | 11.39 | 11.48 Mbytes
c_com[1] c_com[2] c_com[3] 
   25.379953    20.386765    15.959546 
    25.36247    20.445831     15.90072 
Loop time of 0.00254532 on 24 procs for 10 steps with 8887 atoms

Performance: 3394469.118 tau/day, 3928.784 timesteps/s
96.6% CPU use with 24 MPI tasks x no OpenMP threads

MPI task timing breakdown:
Section |  min time  |  avg time  |  max time  |%varavg| %total
---------------------------------------------------------------
Pair    | 0.0008378  | 0.00093397 | 0.00099707 |   0.0 | 36.69
Bond    | 0          | 1.6292e-06 | 5.0068e-06 |   0.0 |  0.06
Neigh   | 0.00084901 | 0.00085483 | 0.00086188 |   0.0 | 33.58
Comm    | 0.00052357 | 0.00059259 | 0.00066066 |   0.0 | 23.28
Output  | 1.5974e-05 | 1.9789e-05 | 2.3127e-05 |   0.0 |  0.78
Modify  | 2.0504e-05 | 2.4666e-05 | 4.077e-05  |   0.0 |  0.97
Other   |            | 0.0001178  |            |       |  4.63

Nlocal:    370.292 ave 375 max 341 min
Histogram: 1 2 0 0 1 0 0 0 0 20
Nghost:    1220.38 ave 1245 max 1132 min
Histogram: 2 1 1 0 0 0 0 0 4 16
Neighs:    7737.04 ave 7984 max 6873 min
Histogram: 2 0 2 0 0 0 0 0 10 10

Total # of neighbors = 185689
Ave neighs/atom = 20.8945
Ave special neighs/atom = 0.00540115
Neighbor list builds = 1
Dangerous builds = 0
run 10
Per MPI rank memory allocation (min/avg/max) = 11.37 | 11.39 | 11.48 Mbytes
c_com[1] c_com[2] c_com[3] 
    25.36247    20.445831     15.90072 
   25.354085    20.498736    15.846651 
Loop time of 0.00257054 on 24 procs for 10 steps with 8887 atoms

Performance: 3361161.843 tau/day, 3890.234 timesteps/s
95.6% CPU use with 24 MPI tasks x no OpenMP threads

MPI task timing breakdown:
Section |  min time  |  avg time  |  max time  |%varavg| %total
---------------------------------------------------------------
Pair    | 0.00084424 | 0.00093993 | 0.0010004  |   0.0 | 36.57
Bond    | 0          | 1.2616e-06 | 4.0531e-06 |   0.0 |  0.05
Neigh   | 0.00085092 | 0.00085442 | 0.00086188 |   0.0 | 33.24
Comm    | 0.00052881 | 0.00060648 | 0.00068235 |   0.0 | 23.59
Output  | 1.6928e-05 | 2.1189e-05 | 3.0041e-05 |   0.0 |  0.82
Modify  | 2.0981e-05 | 2.5501e-05 | 4.3869e-05 |   0.0 |  0.99
Other   |            | 0.0001218  |            |       |  4.74

Nlocal:    370.292 ave 375 max 342 min
Histogram: 3 0 0 1 0 0 0 0 0 20
Nghost:    1220.38 ave 1245 max 1132 min
Histogram: 2 1 1 0 0 0 0 0 4 16
Neighs:    7737.04 ave 7984 max 6870 min
Histogram: 2 0 2 0 0 0 0 0 10 10

Total # of neighbors = 185689
Ave neighs/atom = 20.8945
Ave special neighs/atom = 0.00540115
Neighbor list builds = 1
Dangerous builds = 0
run 10
Per MPI rank memory allocation (min/avg/max) = 11.37 | 11.39 | 11.48 Mbytes
c_com[1] c_com[2] c_com[3] 
   25.354085    20.498736    15.846651 
   25.362846      20.5505    15.794003 
Loop time of 0.00258971 on 24 procs for 10 steps with 8887 atoms

Performance: 3336277.624 tau/day, 3861.432 timesteps/s
83.7% CPU use with 24 MPI tasks x no OpenMP threads

MPI task timing breakdown:
Section |  min time  |  avg time  |  max time  |%varavg| %total
---------------------------------------------------------------
Pair    | 0.00083923 | 0.00094116 | 0.0010021  |   0.0 | 36.34
Bond    | 0          | 1.4504e-06 | 5.0068e-06 |   0.0 |  0.06
Neigh   | 0.00084805 | 0.00085391 | 0.00085902 |   0.0 | 32.97
Comm    | 0.0005486  | 0.00062348 | 0.00070596 |   0.0 | 24.08
Output  | 1.5974e-05 | 1.9332e-05 | 2.3127e-05 |   0.0 |  0.75
Modify  | 2.1219e-05 | 2.5034e-05 | 4.2439e-05 |   0.0 |  0.97
Other   |            | 0.0001253  |            |       |  4.84

Nlocal:    370.292 ave 375 max 342 min
Histogram: 3 0 0 1 0 0 0 0 0 20
Nghost:    1220.38 ave 1245 max 1132 min
Histogram: 2 1 1 0 0 0 0 0 4 16
Neighs:    7737.04 ave 7984 max 6870 min
Histogram: 2 0 2 0 0 0 0 0 10 10

Total # of neighbors = 185689
Ave neighs/atom = 20.8945
Ave special neighs/atom = 0.00540115
Neighbor list builds = 1
Dangerous builds = 0
run 10
Per MPI rank memory allocation (min/avg/max) = 11.37 | 11.39 | 11.48 Mbytes
c_com[1] c_com[2] c_com[3] 
   25.362846      20.5505    15.794003 
   25.379031    20.595148    15.763159 
Loop time of 0.00256504 on 24 procs for 10 steps with 8887 atoms

Performance: 3368373.492 tau/day, 3898.580 timesteps/s
94.2% CPU use with 24 MPI tasks x no OpenMP threads

MPI task timing breakdown:
Section |  min time  |  avg time  |  max time  |%varavg| %total
---------------------------------------------------------------
Pair    | 0.00083637 | 0.00093525 | 0.0010016  |   0.0 | 36.46
Bond    | 0          | 1.5994e-06 | 3.8147e-06 |   0.0 |  0.06
Neigh   | 0.00085211 | 0.00085654 | 0.00086403 |   0.0 | 33.39
Comm    | 0.00051856 | 0.00060487 | 0.00068235 |   0.0 | 23.58
Output  | 1.5974e-05 | 2.0494e-05 | 3.1948e-05 |   0.0 |  0.80
Modify  | 2.1935e-05 | 2.4845e-05 | 4.2439e-05 |   0.0 |  0.97
Other   |            | 0.0001214  |            |       |  4.73

Nlocal:    370.292 ave 375 max 342 min
Histogram: 3 0 0 1 0 0 0 0 0 20
Nghost:    1220.38 ave 1245 max 1132 min
Histogram: 2 1 1 0 0 0 0 0 4 16
Neighs:    7737.04 ave 7984 max 6870 min
Histogram: 2 0 2 0 0 0 0 0 10 10

Total # of neighbors = 185689
Ave neighs/atom = 20.8945
Ave special neighs/atom = 0.00540115
Neighbor list builds = 1
Dangerous builds = 0
run 10
Per MPI rank memory allocation (min/avg/max) = 11.37 | 11.39 | 11.48 Mbytes
c_com[1] c_com[2] c_com[3] 
   25.379031    20.595148    15.763159 
   25.403111    20.664066    15.731765 
Loop time of 0.00256674 on 24 procs for 10 steps with 8887 atoms

Performance: 3366131.186 tau/day, 3895.985 timesteps/s
94.1% CPU use with 24 MPI tasks x no OpenMP threads

MPI task timing breakdown:
Section |  min time  |  avg time  |  max time  |%varavg| %total
---------------------------------------------------------------
Pair    | 0.00084376 | 0.00093828 | 0.00099683 |   0.0 | 36.56
Bond    | 0          | 2.0464e-06 | 5.2452e-06 |   0.0 |  0.08
Neigh   | 0.00085688 | 0.00086038 | 0.00086784 |   0.0 | 33.52
Comm    | 0.00053477 | 0.00060302 | 0.00068402 |   0.0 | 23.49
Output  | 1.5974e-05 | 1.9282e-05 | 2.408e-05  |   0.0 |  0.75
Modify  | 2.0504e-05 | 2.4498e-05 | 3.9101e-05 |   0.0 |  0.95
Other   |            | 0.0001192  |            |       |  4.65

Nlocal:    370.292 ave 375 max 342 min
Histogram: 3 0 0 1 0 0 0 0 0 20
Nghost:    1220.38 ave 1245 max 1132 min
Histogram: 2 1 1 0 0 0 0 0 4 16
Neighs:    7737.04 ave 7984 max 6870 min
Histogram: 2 0 2 0 0 0 0 0 10 10

Total # of neighbors = 185689
Ave neighs/atom = 20.8945
Ave special neighs/atom = 0.00540115
Neighbor list builds = 1
Dangerous builds = 0
run 10
Per MPI rank memory allocation (min/avg/max) = 11.37 | 11.39 | 11.48 Mbytes
c_com[1] c_com[2] c_com[3] 
   25.403111    20.664066    15.731765 
   25.441048    20.721502    15.693118 
Loop time of 0.00258414 on 24 procs for 10 steps with 8887 atoms

Performance: 3343472.742 tau/day, 3869.760 timesteps/s
87.1% CPU use with 24 MPI tasks x no OpenMP threads

MPI task timing breakdown:
Section |  min time  |  avg time  |  max time  |%varavg| %total
---------------------------------------------------------------
Pair    | 0.00084543 | 0.00094127 | 0.0010252  |   0.0 | 36.42
Bond    | 0          | 1.1623e-06 | 2.861e-06  |   0.0 |  0.04
Neigh   | 0.00084805 | 0.00085607 | 0.00086308 |   0.0 | 33.13
Comm    | 0.0005393  | 0.00061874 | 0.00069046 |   0.0 | 23.94
Output  | 1.502e-05  | 2.1279e-05 | 3.0994e-05 |   0.0 |  0.82
Modify  | 2.1696e-05 | 2.5014e-05 | 4.1723e-05 |   0.0 |  0.97
Other   |            | 0.0001206  |            |       |  4.67

Nlocal:    370.292 ave 375 max 342 min
Histogram: 3 0 0 1 0 0 0 0 0 20
Nghost:    1220.38 ave 1245 max 1132 min
Histogram: 2 1 1 0 0 0 0 0 4 16
Neighs:    7737.04 ave 7984 max 6870 min
Histogram: 2 0 2 0 0 0 0 0 10 10

Total # of neighbors = 185689
Ave neighs/atom = 20.8945
Ave special neighs/atom = 0.00540115
Neighbor list builds = 1
Dangerous builds = 0
run 10
Per MPI rank memory allocation (min/avg/max) = 11.37 | 11.39 | 11.48 Mbytes
c_com[1] c_com[2] c_com[3] 
   25.441048    20.721502    15.693118 
   25.476411    20.774559    15.653755 
Loop time of 0.00256764 on 24 procs for 10 steps with 8887 atoms

Performance: 3364959.076 tau/day, 3894.629 timesteps/s
86.0% CPU use with 24 MPI tasks x no OpenMP threads

MPI task timing breakdown:
Section |  min time  |  avg time  |  max time  |%varavg| %total
---------------------------------------------------------------
Pair    | 0.00083852 | 0.00093799 | 0.0009954  |   0.0 | 36.53
Bond    | 0          | 2.0464e-06 | 5.722e-06  |   0.0 |  0.08
Neigh   | 0.00084519 | 0.00085208 | 0.00086117 |   0.0 | 33.19
Comm    | 0.00053787 | 0.0006095  | 0.00068974 |   0.0 | 23.74
Output  | 1.7166e-05 | 1.9729e-05 | 2.408e-05  |   0.0 |  0.77
Modify  | 2.1458e-05 | 2.5203e-05 | 4.1723e-05 |   0.0 |  0.98
Other   |            | 0.0001211  |            |       |  4.72

Nlocal:    370.292 ave 375 max 342 min
Histogram: 3 0 0 1 0 0 0 0 0 20
Nghost:    1220.38 ave 1245 max 1132 min
Histogram: 2 1 1 0 0 0 0 0 4 16
Neighs:    7737.04 ave 7984 max 6870 min
Histogram: 2 0 2 0 0 0 0 0 10 10

Total # of neighbors = 185689
Ave neighs/atom = 20.8945
Ave special neighs/atom = 0.00540115
Neighbor list builds = 1
Dangerous builds = 0
run 10
Per MPI rank memory allocation (min/avg/max) = 11.37 | 11.39 | 11.48 Mbytes
c_com[1] c_com[2] c_com[3] 
   25.476411    20.774559    15.653755 
   25.522421    20.828897    15.608777 
Loop time of 0.00257557 on 24 procs for 10 steps with 8887 atoms

Performance: 3354601.961 tau/day, 3882.641 timesteps/s
84.1% CPU use with 24 MPI tasks x no OpenMP threads

MPI task timing breakdown:
Section |  min time  |  avg time  |  max time  |%varavg| %total
---------------------------------------------------------------
Pair    | 0.00084329 | 0.00094052 | 0.0010092  |   0.0 | 36.52
Bond    | 0          | 1.2318e-06 | 4.0531e-06 |   0.0 |  0.05
Neigh   | 0.00084901 | 0.00085451 | 0.00086188 |   0.0 | 33.18
Comm    | 0.00052524 | 0.00060845 | 0.00068521 |   0.0 | 23.62
Output  | 1.502e-05  | 2.2451e-05 | 3.314e-05  |   0.0 |  0.87
Modify  | 2.0981e-05 | 2.5004e-05 | 4.1008e-05 |   0.0 |  0.97
Other   |            | 0.0001234  |            |       |  4.79

Nlocal:    370.292 ave 375 max 341 min
Histogram: 1 2 0 0 1 0 0 0 0 20
Nghost:    1220.38 ave 1245 max 1132 min
Histogram: 2 1 1 0 0 0 0 0 4 16
Neighs:    7737.04 ave 7984 max 6875 min
Histogram: 2 0 2 0 0 0 0 0 10 10

Total # of neighbors = 185689
Ave neighs/atom = 20.8945
Ave special neighs/atom = 0.00540115
Neighbor list builds = 1
Dangerous builds = 0
run 10
Per MPI rank memory allocation (min/avg/max) = 11.37 | 11.39 | 11.48 Mbytes
c_com[1] c_com[2] c_com[3] 
   25.522421    20.828897    15.608777 
   25.545946    20.869307    15.565135 
Loop time of 0.00260267 on 24 procs for 10 steps with 8887 atoms

Performance: 3319672.195 tau/day, 3842.213 timesteps/s
84.8% CPU use with 24 MPI tasks x no OpenMP threads

MPI task timing breakdown:
Section |  min time  |  avg time  |  max time  |%varavg| %total
---------------------------------------------------------------
Pair    | 0.00084066 | 0.00093948 | 0.00099897 |   0.0 | 36.10
Bond    | 0          | 1.3312e-06 | 5.722e-06  |   0.0 |  0.05
Neigh   | 0.00084591 | 0.00085164 | 0.00085807 |   0.0 | 32.72
Comm    | 0.00058246 | 0.00062646 | 0.00071883 |   0.0 | 24.07
Output  | 1.4067e-05 | 1.6669e-05 | 1.812e-05  |   0.0 |  0.64
Modify  | 2.0742e-05 | 2.5103e-05 | 4.1723e-05 |   0.0 |  0.96
Other   |            | 0.000142   |            |       |  5.46

Nlocal:    370.292 ave 375 max 341 min
Histogram: 1 2 0 0 1 0 0 0 0 20
Nghost:    1220.38 ave 1245 max 1132 min
Histogram: 2 1 1 0 0 0 0 0 4 16
Neighs:    7737.04 ave 7984 max 6875 min
Histogram: 2 0 2 0 0 0 0 0 10 10

Total # of neighbors = 185689
Ave neighs/atom = 20.8945
Ave special neighs/atom = 0.00540115
Neighbor list builds = 1
Dangerous builds = 0
run 10
Per MPI rank memory allocation (min/avg/max) = 11.37 | 11.39 | 11.48 Mbytes
c_com[1] c_com[2] c_com[3] 
   25.545946    20.869307    15.565135 
    25.57314    20.888992      15.5299 
Loop time of 0.00256354 on 24 procs for 10 steps with 8887 atoms

Performance: 3370344.492 tau/day, 3900.862 timesteps/s
95.9% CPU use with 24 MPI tasks x no OpenMP threads

MPI task timing breakdown:
Section |  min time  |  avg time  |  max time  |%varavg| %total
---------------------------------------------------------------
Pair    | 0.00084519 | 0.00094079 | 0.0010099  |   0.0 | 36.70
Bond    | 0          | 1.3312e-06 | 4.0531e-06 |   0.0 |  0.05
Neigh   | 0.00084901 | 0.0008531  | 0.00086093 |   0.0 | 33.28
Comm    | 0.00052738 | 0.00060721 | 0.00069237 |   0.0 | 23.69
Output  | 1.5974e-05 | 1.7971e-05 | 2.0027e-05 |   0.0 |  0.70
Modify  | 2.1219e-05 | 2.417e-05  | 4.077e-05  |   0.0 |  0.94
Other   |            | 0.000119   |            |       |  4.64

Nlocal:    370.292 ave 375 max 341 min
Histogram: 1 2 0 0 1 0 0 0 0 20
Nghost:    1220.38 ave 1245 max 1132 min
Histogram: 2 1 1 0 0 0 0 0 4 16
Neighs:    7737.04 ave 7984 max 6876 min
Histogram: 2 0 2 0 0 0 0 0 10 10

Total # of neighbors = 185689
Ave neighs/atom = 20.8945
Ave special neighs/atom = 0.00540115
Neighbor list builds = 1
Dangerous builds = 0
run 10
Per MPI rank memory allocation (min/avg/max) = 11.37 | 11.39 | 11.48 Mbytes
c_com[1] c_com[2] c_com[3] 
    25.57314    20.888992      15.5299 
   25.607932    20.904619    15.492488 
Loop time of 0.00258979 on 24 procs for 10 steps with 8887 atoms

Performance: 3336175.243 tau/day, 3861.314 timesteps/s
99.7% CPU use with 24 MPI tasks x no OpenMP threads

MPI task timing breakdown:
Section |  min time  |  avg time  |  max time  |%varavg| %total
---------------------------------------------------------------
Pair    | 0.00084424 | 0.00094402 | 0.0010104  |   0.0 | 36.45
Bond    | 0          | 1.8775e-06 | 3.8147e-06 |   0.0 |  0.07
Neigh   | 0.00084686 | 0.00085102 | 0.00085688 |   0.0 | 32.86
Comm    | 0.0005517  | 0.00061921 | 0.00070763 |   0.0 | 23.91
Output  | 1.5974e-05 | 1.8259e-05 | 2.0027e-05 |   0.0 |  0.71
Modify  | 2.1935e-05 | 2.5183e-05 | 3.9577e-05 |   0.0 |  0.97
Other   |            | 0.0001302  |            |       |  5.03

Nlocal:    370.292 ave 375 max 342 min
Histogram: 3 0 0 1 0 0 0 0 0 20
Nghost:    1220.38 ave 1245 max 1132 min
Histogram: 2 1 1 0 0 0 0 0 4 16
Neighs:    7737.04 ave 7984 max 6870 min
Histogram: 2 0 2 0 0 0 0 0 10 10

Total # of neighbors = 185689
Ave neighs/atom = 20.8945
Ave special neighs/atom = 0.00540115
Neighbor list builds = 1
Dangerous builds = 0
run 10
Per MPI rank memory allocation (min/avg/max) = 11.37 | 11.39 | 11.48 Mbytes
c_com[1] c_com[2] c_com[3] 
   25.607932    20.904619    15.492488 
   25.638764    20.908206    15.462899 
Loop time of 0.00254204 on 24 procs for 10 steps with 8887 atoms

Performance: 3398846.682 tau/day, 3933.850 timesteps/s
86.9% CPU use with 24 MPI tasks x no OpenMP threads

MPI task timing breakdown:
Section |  min time  |  avg time  |  max time  |%varavg| %total
---------------------------------------------------------------
Pair    | 0.00084114 | 0.00093214 | 0.00099111 |   0.0 | 36.67
Bond    | 0          | 1.2716e-06 | 3.8147e-06 |   0.0 |  0.05
Neigh   | 0.00085092 | 0.0008548  | 0.00086188 |   0.0 | 33.63
Comm    | 0.00053215 | 0.00059182 | 0.00066948 |   0.0 | 23.28
Output  | 1.502e-05  | 1.802e-05  | 2.0027e-05 |   0.0 |  0.71
Modify  | 2.0504e-05 | 2.5203e-05 | 4.1962e-05 |   0.0 |  0.99
Other   |            | 0.0001188  |            |       |  4.67

Nlocal:    370.292 ave 375 max 341 min
Histogram: 1 2 0 0 1 0 0 0 0 20
Nghost:    1220.38 ave 1245 max 1132 min
Histogram: 2 1 1 0 0 0 0 0 4 16
Neighs:    7737.04 ave 7984 max 6875 min
Histogram: 2 0 2 0 0 0 0 0 10 10

Total # of neighbors = 185689
Ave neighs/atom = 20.8945
Ave special neighs/atom = 0.00540115
Neighbor list builds = 1
Dangerous builds = 0
run 10
Per MPI rank memory allocation (min/avg/max) = 11.37 | 11.39 | 11.48 Mbytes
c_com[1] c_com[2] c_com[3] 
   25.638764    20.908206    15.462899 
   25.672326    20.920789    15.431509 
Loop time of 0.00253549 on 24 procs for 10 steps with 8887 atoms

Performance: 3407622.418 tau/day, 3944.007 timesteps/s
85.4% CPU use with 24 MPI tasks x no OpenMP threads

MPI task timing breakdown:
Section |  min time  |  avg time  |  max time  |%varavg| %total
---------------------------------------------------------------
Pair    | 0.00083017 | 0.00092234 | 0.00099015 |   0.0 | 36.38
Bond    | 9.5367e-07 | 2.1954e-06 | 6.1989e-06 |   0.0 |  0.09
Neigh   | 0.00084686 | 0.00085235 | 0.00085688 |   0.0 | 33.62
Comm    | 0.00052714 | 0.00059777 | 0.00067496 |   0.0 | 23.58
Output  | 1.5974e-05 | 1.9073e-05 | 2.5034e-05 |   0.0 |  0.75
Modify  | 2.1219e-05 | 2.5004e-05 | 4.1962e-05 |   0.0 |  0.99
Other   |            | 0.0001168  |            |       |  4.60

Nlocal:    370.292 ave 375 max 339 min
Histogram: 1 1 1 0 1 0 0 0 0 20
Nghost:    1220.38 ave 1245 max 1132 min
Histogram: 2 1 1 0 0 0 0 0 4 16
Neighs:    7737.04 ave 7984 max 6882 min
Histogram: 2 0 2 0 0 0 0 0 10 10

Total # of neighbors = 185689
Ave neighs/atom = 20.8945
Ave special neighs/atom = 0.00540115
Neighbor list builds = 1
Dangerous builds = 0
run 10
Per MPI rank memory allocation (min/avg/max) = 11.37 | 11.39 | 11.48 Mbytes
c_com[1] c_com[2] c_com[3] 
   25.672326    20.920789    15.431509 
   25.714256    20.942268    15.389864 
Loop time of 0.00255119 on 24 procs for 10 steps with 8887 atoms

Performance: 3386657.415 tau/day, 3919.742 timesteps/s
96.4% CPU use with 24 MPI tasks x no OpenMP threads

MPI task timing breakdown:
Section |  min time  |  avg time  |  max time  |%varavg| %total
---------------------------------------------------------------
Pair    | 0.00083804 | 0.00093658 | 0.0010054  |   0.0 | 36.71
Bond    | 0          | 1.4007e-06 | 4.0531e-06 |   0.0 |  0.05
Neigh   | 0.00084901 | 0.00085456 | 0.00085998 |   0.0 | 33.50
Comm    | 0.00052714 | 0.00060037 | 0.00069237 |   0.0 | 23.53
Output  | 1.3828e-05 | 1.9401e-05 | 2.3127e-05 |   0.0 |  0.76
Modify  | 2.2173e-05 | 2.5849e-05 | 3.9101e-05 |   0.0 |  1.01
Other   |            | 0.000113   |            |       |  4.43

Nlocal:    370.292 ave 375 max 338 min
Histogram: 1 1 1 0 1 0 0 0 0 20
Nghost:    1220.38 ave 1245 max 1132 min
Histogram: 2 1 1 0 0 0 0 0 4 16
Neighs:    7737.04 ave 7984 max 6887 min
Histogram: 2 0 2 0 0 0 0 0 10 10

Total # of neighbors = 185689
Ave neighs/atom = 20.8945
Ave special neighs/atom = 0.00540115
Neighbor list builds = 1
Dangerous builds = 0
run 10
Per MPI rank memory allocation (min/avg/max) = 11.37 | 11.39 | 11.48 Mbytes
c_com[1] c_com[2] c_com[3] 
   25.714256    20.942268    15.389864 
   25.741214    20.966739     15.34561 
Loop time of 0.00254225 on 24 procs for 10 steps with 8887 atoms

Performance: 3398567.773 tau/day, 3933.528 timesteps/s
95.0% CPU use with 24 MPI tasks x no OpenMP threads

MPI task timing breakdown:
Section |  min time  |  avg time  |  max time  |%varavg| %total
---------------------------------------------------------------
Pair    | 0.00084019 | 0.00093158 | 0.00099969 |   0.0 | 36.64
Bond    | 0          | 1.7981e-06 | 7.1526e-06 |   0.0 |  0.07
Neigh   | 0.00084615 | 0.00085113 | 0.00085616 |   0.0 | 33.48
Comm    | 0.00052428 | 0.00060138 | 0.00068378 |   0.0 | 23.66
Output  | 1.4782e-05 | 1.7097e-05 | 1.9073e-05 |   0.0 |  0.67
Modify  | 2.0742e-05 | 2.4617e-05 | 3.767e-05  |   0.0 |  0.97
Other   |            | 0.0001146  |            |       |  4.51

Nlocal:    370.292 ave 375 max 338 min
Histogram: 1 1 1 0 1 0 0 0 0 20
Nghost:    1220.38 ave 1245 max 1132 min
Histogram: 2 1 1 0 0 0 0 0 4 16
Neighs:    7737.04 ave 7984 max 6887 min
Histogram: 2 0 2 0 0 0 0 0 10 10

Total # of neighbors = 185689
Ave neighs/atom = 20.8945
Ave special neighs/atom = 0.00540115
Neighbor list builds = 1
Dangerous builds = 0
run 10
Per MPI rank memory allocation (min/avg/max) = 11.37 | 11.39 | 11.48 Mbytes
c_com[1] c_com[2] c_com[3] 
   25.741214    20.966739     15.34561 
   25.769337    20.983849    15.308448 
Loop time of 0.00255214 on 24 procs for 10 steps with 8887 atoms

Performance: 3385391.902 tau/day, 3918.278 timesteps/s
99.6% CPU use with 24 MPI tasks x no OpenMP threads

MPI task timing breakdown:
Section |  min time  |  avg time  |  max time  |%varavg| %total
---------------------------------------------------------------
Pair    | 0.00084209 | 0.0009386  | 0.0010056  |   0.0 | 36.78
Bond    | 0          | 1.2815e-06 | 3.3379e-06 |   0.0 |  0.05
Neigh   | 0.00085187 | 0.00085598 | 0.00086212 |   0.0 | 33.54
Comm    | 0.00053167 | 0.00059667 | 0.00067902 |   0.0 | 23.38
Output  | 1.5974e-05 | 1.8964e-05 | 2.1935e-05 |   0.0 |  0.74
Modify  | 2.0504e-05 | 2.5004e-05 | 3.6955e-05 |   0.0 |  0.98
Other   |            | 0.0001156  |            |       |  4.53

Nlocal:    370.292 ave 375 max 338 min
Histogram: 1 1 1 0 1 0 0 0 0 20
Nghost:    1220.38 ave 1245 max 1132 min
Histogram: 2 1 1 0 0 0 0 0 4 16
Neighs:    7737.04 ave 7984 max 6887 min
Histogram: 2 0 2 0 0 0 0 0 10 10

Total # of neighbors = 185689
Ave neighs/atom = 20.8945
Ave special neighs/atom = 0.00540115
Neighbor list builds = 1
Dangerous builds = 0
run 10
Per MPI rank memory allocation (min/avg/max) = 11.37 | 11.39 | 11.48 Mbytes
c_com[1] c_com[2] c_com[3] 
   25.769337    20.983849    15.308448 
   25.804524     21.00856     15.27283 
Loop time of 0.00256304 on 24 procs for 10 steps with 8887 atoms

Performance: 3370997.649 tau/day, 3901.618 timesteps/s
104.0% CPU use with 24 MPI tasks x no OpenMP threads

MPI task timing breakdown:
Section |  min time  |  avg time  |  max time  |%varavg| %total
---------------------------------------------------------------
Pair    | 0.00084233 | 0.00093945 | 0.0010011  |   0.0 | 36.65
Bond    | 0          | 1.7981e-06 | 5.0068e-06 |   0.0 |  0.07
Neigh   | 0.00085092 | 0.00085455 | 0.00085902 |   0.0 | 33.34
Comm    | 0.00052929 | 0.00060395 | 0.00069404 |   0.0 | 23.56
Output  | 1.502e-05  | 1.8994e-05 | 2.9087e-05 |   0.0 |  0.74
Modify  | 2.1219e-05 | 2.5173e-05 | 3.7432e-05 |   0.0 |  0.98
Other   |            | 0.0001191  |            |       |  4.65

Nlocal:    370.292 ave 375 max 339 min
Histogram: 1 1 1 0 1 0 0 0 0 20
Nghost:    1220.38 ave 1245 max 1132 min
Histogram: 2 1 1 0 0 0 0 0 4 16
Neighs:    7737.04 ave 7984 max 6885 min
Histogram: 2 0 2 0 0 0 0 0 10 10

Total # of neighbors = 185689
Ave neighs/atom = 20.8945
Ave special neighs/atom = 0.00540115
Neighbor list builds = 1
Dangerous builds = 0
run 10
Per MPI rank memory allocation (min/avg/max) = 11.37 | 11.39 | 11.48 Mbytes
c_com[1] c_com[2] c_com[3] 
   25.804524     21.00856     15.27283 
   25.852641    21.037158     15.24236 
Loop time of 0.00254669 on 24 procs for 10 steps with 8887 atoms

Performance: 3392641.842 tau/day, 3926.669 timesteps/s
[...]
Neighbor list builds = 2
Dangerous builds = 0
run 10
Per MPI rank memory allocation (min/avg/max) = 11.37 | 11.41 | 11.49 Mbytes
c_com[1] c_com[2] c_com[3] 
   26.564955    23.958215    20.578545 
   26.585318    23.970837    20.563872 
Loop time of 0.00351072 on 24 procs for 10 steps with 8887 atoms

Performance: 2461031.173 tau/day, 2848.416 timesteps/s
99.7% CPU use with 24 MPI tasks x no OpenMP threads

MPI task timing breakdown:
Section |  min time  |  avg time  |  max time  |%varavg| %total
---------------------------------------------------------------
Pair    | 0.00085187 | 0.00095786 | 0.00102    |   0.0 | 27.28
Bond    | 0          | 1.5795e-06 | 4.2915e-06 |   0.0 |  0.04
Neigh   | 0.0017118  | 0.0017167  | 0.00173    |   0.0 | 48.90
Comm    | 0.00058126 | 0.00066183 | 0.00076032 |   0.0 | 18.85
Output  | 1.502e-05  | 1.9073e-05 | 2.5034e-05 |   0.0 |  0.54
Modify  | 2.1458e-05 | 2.5143e-05 | 4.6015e-05 |   0.0 |  0.72
Other   |            | 0.0001285  |            |       |  3.66

Nlocal:    370.292 ave 384 max 332 min
Histogram: 1 0 2 0 1 0 0 0 19 1
Nghost:    1220.38 ave 1244 max 1132 min
Histogram: 3 0 1 0 0 0 0 0 3 17
Neighs:    7737.04 ave 8002 max 6870 min
Histogram: 2 0 2 0 0 0 0 10 0 10

Total # of neighbors = 185689
Ave neighs/atom = 20.8945
Ave special neighs/atom = 0.00540115
Neighbor list builds = 2
Dangerous builds = 0
run 10
Per MPI rank memory allocation (min/avg/max) = 11.37 | 11.41 | 11.49 Mbytes
c_com[1] c_com[2] c_com[3] 
   26.585318    23.970837    20.563872 
   26.610998    23.970997    20.555802 
Loop time of 0.00347745 on 24 procs for 10 steps with 8887 atoms

Performance: 2484576.227 tau/day, 2875.667 timesteps/s
92.2% CPU use with 24 MPI tasks x no OpenMP threads

MPI task timing breakdown:
Section |  min time  |  avg time  |  max time  |%varavg| %total
---------------------------------------------------------------
Pair    | 0.00084496 | 0.00095065 | 0.0010133  |   0.0 | 27.34
Bond    | 0          | 9.3381e-07 | 3.0994e-06 |   0.0 |  0.03
Neigh   | 0.001698   | 0.0017067  | 0.00172    |   0.0 | 49.08
Comm    | 0.00058126 | 0.00065044 | 0.00075412 |   0.0 | 18.70
Output  | 1.502e-05  | 1.661e-05  | 1.9073e-05 |   0.0 |  0.48
Modify  | 2.0266e-05 | 2.4855e-05 | 4.6015e-05 |   0.0 |  0.71
Other   |            | 0.0001272  |            |       |  3.66

Nlocal:    370.292 ave 384 max 332 min
Histogram: 1 0 2 0 1 0 0 0 19 1
Nghost:    1220.38 ave 1244 max 1132 min
Histogram: 3 0 1 0 0 0 0 0 3 17
Neighs:    7737.04 ave 8002 max 6870 min
Histogram: 2 0 2 0 0 0 0 10 0 10

Total # of neighbors = 185689
Ave neighs/atom = 20.8945
Ave special neighs/atom = 0.00540115
Neighbor list builds = 2
Dangerous builds = 0
run 10
Per MPI rank memory allocation (min/avg/max) = 11.37 | 11.41 | 11.49 Mbytes
c_com[1] c_com[2] c_com[3] 
   26.610998    23.970997    20.555802 
   26.636618    23.974683    20.547438 
Loop time of 0.0025781 on 24 procs for 10 steps with 8887 atoms

Performance: 3351305.785 tau/day, 3878.826 timesteps/s
85.6% CPU use with 24 MPI tasks x no OpenMP threads

MPI task timing breakdown:
Section |  min time  |  avg time  |  max time  |%varavg| %total
---------------------------------------------------------------
Pair    | 0.0008502  | 0.00094079 | 0.0010011  |   0.0 | 36.49
Bond    | 0          | 1.3113e-06 | 3.5763e-06 |   0.0 |  0.05
Neigh   | 0.00084305 | 0.00085342 | 0.00086117 |   0.0 | 33.10
Comm    | 0.00055552 | 0.00061577 | 0.00069451 |   0.0 | 23.88
Output  | 1.502e-05  | 1.8756e-05 | 2.0981e-05 |   0.0 |  0.73
Modify  | 2.0504e-05 | 2.5133e-05 | 4.7684e-05 |   0.0 |  0.97
Other   |            | 0.0001229  |            |       |  4.77

Nlocal:    370.292 ave 384 max 332 min
Histogram: 1 0 2 0 1 0 0 0 19 1
Nghost:    1220.38 ave 1244 max 1132 min
Histogram: 3 0 1 0 0 0 0 0 3 17
Neighs:    7737.04 ave 8002 max 6870 min
Histogram: 2 0 2 0 0 0 0 10 0 10

Total # of neighbors = 185689
Ave neighs/atom = 20.8945
Ave special neighs/atom = 0.00540115
Neighbor list builds = 1
Dangerous builds = 0
run 10
Per MPI rank memory allocation (min/avg/max) = 11.37 | 11.41 | 11.49 Mbytes
c_com[1] c_com[2] c_com[3] 
   26.636618    23.974683    20.547438 
   26.664581    23.976716    20.539612 
Loop time of 0.00254255 on 24 procs for 10 steps with 8887 atoms

Performance: 3398169.412 tau/day, 3933.066 timesteps/s
93.4% CPU use with 24 MPI tasks x no OpenMP threads

MPI task timing breakdown:
Section |  min time  |  avg time  |  max time  |%varavg| %total
---------------------------------------------------------------
Pair    | 0.00083327 | 0.00093923 | 0.00099778 |   0.0 | 36.94
Bond    | 0          | 1.5199e-06 | 3.3379e-06 |   0.0 |  0.06
Neigh   | 0.0008471  | 0.00084978 | 0.00085402 |   0.0 | 33.42
Comm    | 0.00052714 | 0.00059086 | 0.00069022 |   0.0 | 23.24
Output  | 1.4067e-05 | 1.7722e-05 | 2.0027e-05 |   0.0 |  0.70
Modify  | 2.0266e-05 | 2.5064e-05 | 4.4346e-05 |   0.0 |  0.99
Other   |            | 0.0001184  |            |       |  4.66

Nlocal:    370.292 ave 384 max 332 min
Histogram: 1 0 2 0 1 0 0 0 19 1
Nghost:    1220.38 ave 1244 max 1132 min
Histogram: 3 0 1 0 0 0 0 0 3 17
Neighs:    7737.04 ave 8002 max 6870 min
Histogram: 2 0 2 0 0 0 0 10 0 10

Total # of neighbors = 185689
Ave neighs/atom = 20.8945
Ave special neighs/atom = 0.00540115
Neighbor list builds = 1
Dangerous builds = 0
run 10
Per MPI rank memory allocation (min/avg/max) = 11.37 | 11.41 | 11.49 Mbytes
c_com[1] c_com[2] c_com[3] 
   26.664581    23.976716    20.539612 
    26.69343    23.973818    20.544539 
Loop time of 0.00258247 on 24 procs for 10 steps with 8887 atoms

Performance: 3345633.472 tau/day, 3872.261 timesteps/s
88.7% CPU use with 24 MPI tasks x no OpenMP threads

MPI task timing breakdown:
Section |  min time  |  avg time  |  max time  |%varavg| %total
---------------------------------------------------------------
Pair    | 0.00083804 | 0.00094256 | 0.00099826 |   0.0 | 36.50
Bond    | 0          | 2.0365e-06 | 4.0531e-06 |   0.0 |  0.08
Neigh   | 0.00084996 | 0.00085365 | 0.00085807 |   0.0 | 33.06
Comm    | 0.00054908 | 0.00060501 | 0.00070429 |   0.0 | 23.43
Output  | 1.6928e-05 | 1.9143e-05 | 2.3127e-05 |   0.0 |  0.74
Modify  | 1.8358e-05 | 2.5362e-05 | 4.3631e-05 |   0.0 |  0.98
Other   |            | 0.0001347  |            |       |  5.22

Nlocal:    370.292 ave 383 max 332 min
Histogram: 1 0 2 0 1 0 0 0 19 1
Nghost:    1220.38 ave 1243 max 1132 min
Histogram: 3 0 1 0 0 0 0 0 0 20
Neighs:    7737.04 ave 7998 max 6870 min
Histogram: 2 0 2 0 0 0 0 10 0 10

Total # of neighbors = 185689
Ave neighs/atom = 20.8945
Ave special neighs/atom = 0.00540115
Neighbor list builds = 1
Dangerous builds = 0
run 10
Per MPI rank memory allocation (min/avg/max) = 11.37 | 11.41 | 11.49 Mbytes
c_com[1] c_com[2] c_com[3] 
    26.69343    23.973818    20.544539 
   26.722122    23.951638    20.561747 
Loop time of 0.00256154 on 24 procs for 10 steps with 8887 atoms

Performance: 3372971.722 tau/day, 3903.902 timesteps/s
92.7% CPU use with 24 MPI tasks x no OpenMP threads

MPI task timing breakdown:
Section |  min time  |  avg time  |  max time  |%varavg| %total
---------------------------------------------------------------
Pair    | 0.00083494 | 0.00094018 | 0.0010068  |   0.0 | 36.70
Bond    | 0          | 1.8477e-06 | 4.2915e-06 |   0.0 |  0.07
Neigh   | 0.00085402 | 0.00085742 | 0.00086594 |   0.0 | 33.47
Comm    | 0.00052047 | 0.00059631 | 0.00069094 |   0.0 | 23.28
Output  | 1.502e-05  | 1.812e-05  | 2.1935e-05 |   0.0 |  0.71
Modify  | 2.1935e-05 | 2.5342e-05 | 4.5061e-05 |   0.0 |  0.99
Other   |            | 0.0001223  |            |       |  4.77

Nlocal:    370.292 ave 384 max 332 min
Histogram: 1 0 2 0 1 0 0 0 19 1
Nghost:    1220.38 ave 1244 max 1132 min
Histogram: 3 0 1 0 0 0 0 0 3 17
Neighs:    7737.04 ave 8000 max 6870 min
Histogram: 2 0 2 0 0 0 0 10 0 10

Total # of neighbors = 185689
Ave neighs/atom = 20.8945
Ave special neighs/atom = 0.00540115
Neighbor list builds = 1
Dangerous builds = 0
run 10
Per MPI rank memory allocation (min/avg/max) = 11.37 | 11.41 | 11.49 Mbytes
c_com[1] c_com[2] c_com[3] 
   26.722122    23.951638    20.561747 
   26.753277    23.938527    20.602297 
Loop time of 0.00258219 on 24 procs for 10 steps with 8887 atoms

Performance: 3345993.865 tau/day, 3872.678 timesteps/s
96.8% CPU use with 24 MPI tasks x no OpenMP threads

MPI task timing breakdown:
Section |  min time  |  avg time  |  max time  |%varavg| %total
---------------------------------------------------------------
Pair    | 0.0008328  | 0.00094311 | 0.0010064  |   0.0 | 36.52
Bond    | 0          | 1.5597e-06 | 5.9605e-06 |   0.0 |  0.06
Neigh   | 0.00085306 | 0.00085658 | 0.00086308 |   0.0 | 33.17
Comm    | 0.00052881 | 0.00060614 | 0.00071573 |   0.0 | 23.47
Output  | 1.5974e-05 | 1.9292e-05 | 2.3127e-05 |   0.0 |  0.75
Modify  | 2.1219e-05 | 2.5709e-05 | 4.673e-05  |   0.0 |  1.00
Other   |            | 0.0001298  |            |       |  5.03

Nlocal:    370.292 ave 385 max 332 min
Histogram: 1 0 2 0 1 0 0 0 19 1
Nghost:    1220.38 ave 1245 max 1132 min
Histogram: 3 0 1 0 0 0 0 0 3 17
Neighs:    7737.04 ave 8005 max 6870 min
Histogram: 2 0 2 0 0 0 0 10 0 10

Total # of neighbors = 185689
Ave neighs/atom = 20.8945
Ave special neighs/atom = 0.00540115
Neighbor list builds = 1
Dangerous builds = 0
run 10
Per MPI rank memory allocation (min/avg/max) = 11.37 | 11.41 | 11.49 Mbytes
c_com[1] c_com[2] c_com[3] 
   26.753277    23.938527    20.602297 
    26.76513    23.934241    20.640438 
Loop time of 0.00255986 on 24 procs for 10 steps with 8887 atoms

Performance: 3375183.859 tau/day, 3906.463 timesteps/s
79.7% CPU use with 24 MPI tasks x no OpenMP threads

MPI task timing breakdown:
Section |  min time  |  avg time  |  max time  |%varavg| %total
---------------------------------------------------------------
Pair    | 0.00083065 | 0.00093948 | 0.0010037  |   0.0 | 36.70
Bond    | 0          | 1.1722e-06 | 3.8147e-06 |   0.0 |  0.05
Neigh   | 0.00085521 | 0.00086098 | 0.00086808 |   0.0 | 33.63
Comm    | 0.00053072 | 0.00060009 | 0.00069642 |   0.0 | 23.44
Output  | 1.3828e-05 | 1.6958e-05 | 1.9073e-05 |   0.0 |  0.66
Modify  | 2.0742e-05 | 2.4954e-05 | 4.6253e-05 |   0.0 |  0.97
Other   |            | 0.0001162  |            |       |  4.54

Nlocal:    370.292 ave 385 max 332 min
Histogram: 1 0 2 0 1 0 0 0 19 1
Nghost:    1220.38 ave 1245 max 1132 min
Histogram: 3 0 1 0 0 0 0 0 3 17
Neighs:    7737.04 ave 8005 max 6870 min
Histogram: 2 0 2 0 0 0 0 10 0 10

Total # of neighbors = 185689
Ave neighs/atom = 20.8945
Ave special neighs/atom = 0.00540115
Neighbor list builds = 1
Dangerous builds = 0
reset_timestep 1010
run 1
Per MPI rank memory allocation (min/avg/max) = 11.37 | 11.41 | 11.49 Mbytes
c_com[1] c_com[2] c_com[3] 
   26.468293     21.72493    17.963345 
   26.468733    21.727916    17.966782 
Loop time of 0.000193596 on 24 procs for 1 steps with 8887 atoms

Performance: 4462904.749 tau/day, 5165.399 timesteps/s
64.6% CPU use with 24 MPI tasks x no OpenMP threads

MPI task timing breakdown:
Section |  min time  |  avg time  |  max time  |%varavg| %total
---------------------------------------------------------------
Pair    | 9.2983e-05 | 0.00010286 | 0.00010705 |   0.0 | 53.13
Bond    | 0          | 7.9473e-08 | 9.5367e-07 |   0.0 |  0.04
Neigh   | 0          | 0          | 0          |   0.0 |  0.00
Comm    | 4.7922e-05 | 5.3505e-05 | 6.3181e-05 |   0.0 | 27.64
Output  | 1.4067e-05 | 1.6729e-05 | 1.9789e-05 |   0.0 |  8.64
Modify  | 1.9073e-06 | 3.2087e-06 | 5.722e-06  |   0.0 |  1.66
Other   |            | 1.722e-05  |            |       |  8.89

Nlocal:    370.292 ave 375 max 342 min
Histogram: 3 0 0 1 0 0 0 0 0 20
Nghost:    1220.96 ave 1245 max 1132 min
Histogram: 2 1 1 0 0 0 0 0 3 17
Neighs:    7737.04 ave 7984 max 6870 min
Histogram: 2 0 2 0 0 0 0 0 10 10

Total # of neighbors = 185689
Ave neighs/atom = 20.8945
Ave special neighs/atom = 0.00540115
Neighbor list builds = 0
Dangerous builds = 0
reset_timestep 3330
run 1
Per MPI rank memory allocation (min/avg/max) = 11.37 | 11.41 | 11.49 Mbytes
c_com[1] c_com[2] c_com[3] 
   26.097775    21.258842    18.154629 
   26.099958     21.25686    18.157361 
Loop time of 0.000197113 on 24 procs for 1 steps with 8887 atoms

Performance: 4383282.318 tau/day, 5073.243 timesteps/s
63.4% CPU use with 24 MPI tasks x no OpenMP threads

MPI task timing breakdown:
Section |  min time  |  avg time  |  max time  |%varavg| %total
---------------------------------------------------------------
Pair    | 9.2983e-05 | 0.00010297 | 0.000108   |   0.0 | 52.24
Bond    | 0          | 1.9868e-07 | 9.5367e-07 |   0.0 |  0.10
Neigh   | 0          | 0          | 0          |   0.0 |  0.00
Comm    | 4.9114e-05 | 5.5244e-05 | 6.6042e-05 |   0.0 | 28.03
Output  | 1.4782e-05 | 1.7772e-05 | 2.0027e-05 |   0.0 |  9.02
Modify  | 1.9073e-06 | 2.861e-06  | 5.9605e-06 |   0.0 |  1.45
Other   |            | 1.807e-05  |            |       |  9.17

Nlocal:    370.292 ave 375 max 342 min
Histogram: 3 0 0 1 0 0 0 0 0 20
Nghost:    1220.79 ave 1245 max 1132 min
Histogram: 2 1 1 0 0 0 0 0 3 17
Neighs:    7737.04 ave 7984 max 6870 min
Histogram: 2 0 2 0 0 0 0 0 10 10

Total # of neighbors = 185689
Ave neighs/atom = 20.8945
Ave special neighs/atom = 0.00540115
Neighbor list builds = 0
Dangerous builds = 0
reset_timestep 2870
run 1
Per MPI rank memory allocation (min/avg/max) = 11.37 | 11.41 | 11.49 Mbytes
c_com[1] c_com[2] c_com[3] 
   26.294424    21.261484    19.012711 
   26.294234    21.264017    19.016726 
Loop time of 0.000195821 on 24 procs for 1 steps with 8887 atoms

Performance: 4412189.922 tau/day, 5106.701 timesteps/s
127.6% CPU use with 24 MPI tasks x no OpenMP threads

MPI task timing breakdown:
Section |  min time  |  avg time  |  max time  |%varavg| %total
---------------------------------------------------------------
Pair    | 9.203e-05  | 0.00010272 | 0.000108   |   0.0 | 52.46
Bond    | 0          | 1.5895e-07 | 9.5367e-07 |   0.0 |  0.08
Neigh   | 0          | 0          | 0          |   0.0 |  0.00
Comm    | 4.8876e-05 | 5.4846e-05 | 6.1989e-05 |   0.0 | 28.01
Output  | 1.502e-05  | 1.7722e-05 | 2.0981e-05 |   0.0 |  9.05
Modify  | 1.9073e-06 | 3.0498e-06 | 5.9605e-06 |   0.0 |  1.56
Other   |            | 1.733e-05  |            |       |  8.85

Nlocal:    370.292 ave 375 max 342 min
Histogram: 3 0 0 1 0 0 0 0 0 20
Nghost:    1220.46 ave 1245 max 1132 min
Histogram: 3 0 1 0 0 0 0 0 3 17
Neighs:    7737.04 ave 7984 max 6870 min
Histogram: 2 0 2 0 0 0 0 0 10 10

Total # of neighbors = 185689
Ave neighs/atom = 20.8945
Ave special neighs/atom = 0.00540115
Neighbor list builds = 0
Dangerous builds = 0
reset_timestep 1510
run 1
Per MPI rank memory allocation (min/avg/max) = 11.37 | 11.41 | 11.49 Mbytes
c_com[1] c_com[2] c_com[3] 
   26.690216    20.865972    17.811575 
   26.692084    20.865841    17.813286 
Loop time of 0.000191708 on 24 procs for 1 steps with 8887 atoms

Performance: 4506844.634 tau/day, 5216.255 timesteps/s
108.7% CPU use with 24 MPI tasks x no OpenMP threads

MPI task timing breakdown:
Section |  min time  |  avg time  |  max time  |%varavg| %total
---------------------------------------------------------------
Pair    | 9.2983e-05 | 0.00010284 | 0.000108   |   0.0 | 53.64
Bond    | 0          | 1.9868e-07 | 9.5367e-07 |   0.0 |  0.10
Neigh   | 0          | 0          | 0          |   0.0 |  0.00
Comm    | 4.6968e-05 | 5.2631e-05 | 6.2943e-05 |   0.0 | 27.45
Output  | 1.502e-05  | 1.653e-05  | 1.7881e-05 |   0.0 |  8.62
Modify  | 1.9073e-06 | 3.0994e-06 | 5.0068e-06 |   0.0 |  1.62
Other   |            | 1.641e-05  |            |       |  8.56

Nlocal:    370.292 ave 375 max 342 min
Histogram: 3 0 0 1 0 0 0 0 0 20
Nghost:    1221.04 ave 1245 max 1132 min
Histogram: 2 1 1 0 0 0 0 0 3 17
Neighs:    7737.04 ave 7984 max 6870 min
Histogram: 2 0 2 0 0 0 0 0 10 10

Total # of neighbors = 185689
Ave neighs/atom = 20.8945
Ave special neighs/atom = 0.00540115
Neighbor list builds = 0
Dangerous builds = 0
reset_timestep 1440
run 1
Per MPI rank memory allocation (min/avg/max) = 11.37 | 11.41 | 11.49 Mbytes
c_com[1] c_com[2] c_com[3] 
   26.654776    20.072663    18.835227 
   26.655444    20.073935    18.838848 
Loop time of 0.000196218 on 24 procs for 1 steps with 8887 atoms

Performance: 4403254.746 tau/day, 5096.360 timesteps/s
84.9% CPU use with 24 MPI tasks x no OpenMP threads

MPI task timing breakdown:
Section |  min time  |  avg time  |  max time  |%varavg| %total
---------------------------------------------------------------
Pair    | 9.2983e-05 | 0.00010276 | 0.00010705 |   0.0 | 52.37
Bond    | 0          | 3.6756e-07 | 1.1921e-06 |   0.0 |  0.19
Neigh   | 0          | 0          | 0          |   0.0 |  0.00
Comm    | 4.9829e-05 | 5.5373e-05 | 6.2943e-05 |   0.0 | 28.22
Output  | 1.502e-05  | 1.7107e-05 | 2.0981e-05 |   0.0 |  8.72
Modify  | 1.9073e-06 | 3.3081e-06 | 6.1989e-06 |   0.0 |  1.69
Other   |            | 1.731e-05  |            |       |  8.82

Nlocal:    370.292 ave 375 max 342 min
Histogram: 3 0 0 1 0 0 0 0 0 20
Nghost:    1220.54 ave 1245 max 1132 min
Histogram: 2 1 1 0 0 0 0 0 3 17
Neighs:    7737.04 ave 7984 max 6870 min
Histogram: 2 0 2 0 0 0 0 0 10 10

Total # of neighbors = 185689
Ave neighs/atom = 20.8945
Ave special neighs/atom = 0.00540115
Neighbor list builds = 0
Dangerous builds = 0
reset_timestep 3490
run 1
Per MPI rank memory allocation (min/avg/max) = 11.37 | 11.41 | 11.49 Mbytes
c_com[1] c_com[2] c_com[3] 
   26.315186     23.13372    21.415903 
   26.307729    23.132761    21.417996 
Loop time of 0.000195245 on 24 procs for 1 steps with 8887 atoms

Performance: 4425210.529 tau/day, 5121.771 timesteps/s
42.7% CPU use with 24 MPI tasks x no OpenMP threads

MPI task timing breakdown:
Section |  min time  |  avg time  |  max time  |%varavg| %total
---------------------------------------------------------------
Pair    | 9.203e-05  | 0.0001027  | 0.00010705 |   0.0 | 52.60
Bond    | 0          | 3.6756e-07 | 1.1921e-06 |   0.0 |  0.19
Neigh   | 0          | 0          | 0          |   0.0 |  0.00
Comm    | 4.8876e-05 | 5.4598e-05 | 6.4135e-05 |   0.0 | 27.96
Output  | 1.4067e-05 | 1.7961e-05 | 2.3127e-05 |   0.0 |  9.20
Modify  | 1.9073e-06 | 3.0498e-06 | 5.0068e-06 |   0.0 |  1.56
Other   |            | 1.657e-05  |            |       |  8.49

Nlocal:    370.292 ave 383 max 332 min
Histogram: 1 0 2 0 1 0 0 0 19 1
Nghost:    1220.54 ave 1245 max 1132 min
Histogram: 3 0 1 0 0 0 0 0 3 17
Neighs:    7737.04 ave 7994 max 6870 min
Histogram: 2 0 2 0 0 0 0 9 1 10

Total # of neighbors = 185689
Ave neighs/atom = 20.8945
Ave special neighs/atom = 0.00540115
Neighbor list builds = 0
Dangerous builds = 0
reset_timestep 5240
run 1
Per MPI rank memory allocation (min/avg/max) = 11.37 | 11.41 | 11.49 Mbytes
c_com[1] c_com[2] c_com[3] 
   25.948459    21.448688    19.208596 
   25.950099    21.450889    19.213114 
Loop time of 0.000197579 on 24 procs for 1 steps with 8887 atoms

Performance: 4372924.116 tau/day, 5061.255 timesteps/s
105.4% CPU use with 24 MPI tasks x no OpenMP threads

MPI task timing breakdown:
Section |  min time  |  avg time  |  max time  |%varavg| %total
---------------------------------------------------------------
Pair    | 9.203e-05  | 0.00010275 | 0.00010705 |   0.0 | 52.00
Bond    | 0          | 2.5829e-07 | 1.1921e-06 |   0.0 |  0.13
Neigh   | 0          | 0          | 0          |   0.0 |  0.00
Comm    | 4.8876e-05 | 5.5055e-05 | 6.6042e-05 |   0.0 | 27.86
Output  | 1.4067e-05 | 1.8338e-05 | 2.2173e-05 |   0.0 |  9.28
Modify  | 1.9073e-06 | 3.3776e-06 | 5.2452e-06 |   0.0 |  1.71
Other   |            | 1.78e-05   |            |       |  9.01

Nlocal:    370.292 ave 376 max 340 min
Histogram: 1 2 0 0 1 0 0 0 0 20
Nghost:    1220.38 ave 1245 max 1132 min
Histogram: 3 0 1 0 0 0 0 0 3 17
Neighs:    7737 ave 7984 max 6870 min
Histogram: 2 0 2 0 0 0 0 0 10 10

Total # of neighbors = 185688
Ave neighs/atom = 20.8943
Ave special neighs/atom = 0.00540115
Neighbor list builds = 0
Dangerous builds = 0
