LAMMPS (17 Nov 2016)
# Sample LAMMPS script for modulating the probability that a hexamer passes
# a pore with pulling force on a LJ wall, under Langevin dynamics

# settings
# a 3D 60 box
variable      x equal 60
variable      y equal 30
variable      z equal 30
# temperature t = 1
variable      t equal 1
#variable      rho equal 0.7
neigh_modify  delay 0 check yes one 200000 page 2000000


# System setup

units         lj
dimension     3
atom_style    bond
bond_style    harmonic
pair_style    lj/cut 3
processors    1 2 2
read_data     data.polymer
  orthogonal box = (0 0 0) to (60 30 30)
  1 by 2 by 2 MPI processor grid
  reading atoms ...
  8887 atoms
  scanning bonds ...
  1 = max bonds/atom
  reading bonds ...
  9 bonds
  2 = max # of 1-2 neighbors
  2 = max # of 1-3 neighbors
  4 = max # of 1-4 neighbors
  6 = max # of special neighbors

# LJ pairs

# lattice       fcc ${rho}
# region        simbox block 0 $x 0 $y 0 $z
#create_box    1 simbox
region        void cylinder x 15 15 2 29 31
#region        wall block 29 31 0 30 0 30



#create_atoms  3 region wall
#delete_atoms  region void
pair_coeff    1 2 2.5 1
pair_coeff    1 3 2.5 1 1.12
pair_coeff    2 3 2.5 1 1.12

velocity      all create $t 97287
velocity      all create 1 97287


# Read bond/position info
group         polymer type 1 2
10 atoms in group polymer
group         first type 1
1 atoms in group first
region        box block 0 $x 0 $y 0 $z
region        box block 0 60 0 $y 0 $z
region        box block 0 60 0 30 0 $z
region        box block 0 60 0 30 0 30
region        spherein sphere 29 15 15 2
region        boxin block 27 29 13 17 13 17
region        hemiin intersect 2 boxin spherein
region        print block 29 31 12 18 12 18
group         print region print
300 atoms in group print
#region        sphereout sphere 31 15 15 2
#region        boxout block 31 33 13 17 13 17
#region        hemiout intersect 2 boxout sphereout


# Create forces
#variable      ftotal equal fcm(polymer,x)
fix           1 polymer nve
fix           2 polymer langevin $t $t 1 1209
fix           2 polymer langevin 1 $t 1 1209
fix           2 polymer langevin 1 1 1 1209
timestep      0.01
# equilibration run
thermo        1000
compute       com polymer com
thermo_style custom c_com[1] c_com[2] c_com[3]
fix           3 polymer spring tether 1 27 NULL NULL 0
run           5000
Neighbor list info ...
  1 neighbor list requests
  update every 1 steps, delay 0 steps, check yes
  max neighbors/atom: 200000, page size: 2000000
  master list distance cutoff = 3.3
  ghost atom cutoff = 3.3
  binsize = 1.65 -> bins = 37 19 19
Memory usage per processor = 3.8469 Mbytes
c_com[1] c_com[2] c_com[3] 
        17.5           15           15 
   23.452472    13.395554    14.524894 
   26.859192    13.093019    13.497379 
   25.404814    13.742954    13.587217 
   25.974598    14.429266    12.283875 
   26.865505    13.515919    8.9677563 
Loop time of 10.382 on 4 procs for 5000 steps with 8887 atoms

Performance: 416103.404 tau/day, 481.601 timesteps/s
85.9% CPU use with 4 MPI tasks x no OpenMP threads

MPI task timing breakdown:
Section |  min time  |  avg time  |  max time  |%varavg| %total
---------------------------------------------------------------
Pair    | 3.2355     | 3.2494     | 3.2658     |   0.7 | 31.30
Bond    | 0.001413   | 0.0017787  | 0.002509   |   1.0 |  0.02
Neigh   | 5.6012     | 5.632      | 5.6602     |   1.0 | 54.25
Comm    | 1.2302     | 1.2497     | 1.2744     |   1.4 | 12.04
Output  | 0.000227   | 0.00032775 | 0.00049    |   0.5 |  0.00
Modify  | 0.11434    | 0.11624    | 0.11873    |   0.5 |  1.12
Other   |            | 0.1325     |            |       |  1.28

Nlocal:    2221.75 ave 2240 max 2207 min
Histogram: 1 0 0 2 0 0 0 0 0 1
Nghost:    2283.25 ave 2293 max 2270 min
Histogram: 1 0 0 0 1 0 0 0 1 1
Neighs:    46422.2 ave 46484 max 46354 min
Histogram: 1 0 0 1 0 0 0 1 0 1

Total # of neighbors = 185689
Ave neighs/atom = 20.8945
Ave special neighs/atom = 0.00540115
Neighbor list builds = 820
Dangerous builds = 0
unfix         3
reset_timestep 0
change_box    all boundary f p p
fix 3 polymer smoothforce 29 31 0.15 1 3
fix 4 polymer wall/reflect xlo 21.5 xhi 39.5
thermo        10
run           100000
Memory usage per processor = 4.03001 Mbytes
c_com[1] c_com[2] c_com[3] 
   26.865505    13.515919    8.9677563 
   26.838984    13.520399    8.9522844 
   26.825216    13.541431    8.9373682 
   26.807368     13.57375    8.9054787 
   26.791698    13.624063    8.8746393 
   26.791789    13.673432     8.856604 
   26.816548    13.724362     8.845249 
   26.839332    13.781785    8.8194519 
   26.854236    13.828378    8.7864569 
   26.870102    13.853527     8.750204 
   26.888543    13.858538    8.7178854 
   26.914277    13.862759    8.6803617 
   26.941203    13.861787    8.6440022 
    26.96675    13.862163    8.6216314 
   26.974788    13.858472    8.6046738 
    26.97925    13.853255    8.5765214 
   26.965179    13.839342    8.5343055 
   26.950626    13.818538    8.5104832 
   26.930858    13.805678     8.502163 
   26.913723    13.808314     8.499225 
   26.886502    13.810893    8.4995758 
   26.850487    13.825303    8.5090586 
   26.805686    13.842695    8.5179282 
   26.749469     13.86343    8.5159771 
   26.697387    13.887992    8.5157866 
   26.650733    13.916181    8.5324655 
   26.625154    13.949894    8.5546332 
   26.607865     13.96514    8.5664022 
   26.583205    13.987521    8.5728969 
     26.5606    14.007704    8.5659963 
   26.557038    14.021947    8.5454464 
    26.53253    14.036752    8.5309754 
   26.503332    14.056533    8.5101145 
   26.481513    14.090816    8.4928879 
   26.471974    14.115183     8.469308 
   26.471316    14.133401    8.4419491 
   26.473165     14.15163    8.4141091 
   26.463215    14.168134    8.3816546 
   26.456619    14.193826    8.3283184 
   26.464875    14.238948    8.2637775 
   26.489969    14.289511    8.2078389 
   26.513057    14.334234    8.1552827 
    26.52347    14.370923    8.0938705 
   26.543239     14.37701    8.0257207 
   26.564991    14.375954    7.9585419 
   26.574808    14.363104    7.8958228 
     26.5859    14.343309    7.8566579 
   26.614235    14.335478    7.8343886 
   26.675206    14.331087    7.8233036 
   26.734776    14.327181    7.8312784 
   26.807535     14.31981    7.8310735 
   26.877155    14.301797    7.8045185 
   26.930138      14.2703     7.786799 
   26.978013    14.244864    7.7759202 
   27.026017     14.21225    7.7470389 
    27.06937    14.159187    7.6910032 
   27.092619    14.105668    7.6322005 
   27.116407    14.067381    7.5715203 
   27.134512    14.047374    7.5382271 
   27.152725    14.027143      7.51671 
   27.169138    14.006832    7.4778913 
   27.168446    14.000363     7.433205 
   27.155056    13.998808    7.3916234 
    27.14889    13.995307    7.3424564 
   27.110994    13.996816     7.283656 
   27.049278    14.001562    7.2263381 
   26.986309    14.001978    7.1695243 
   26.940942    14.002897    7.1256028 
   26.893984    14.010675    7.0794568 
   26.857401    14.018957    7.0240582 
   26.829727    14.024893    6.9778858 
    26.78846    14.062621    6.9419445 
   26.744283    14.124139    6.9001945 
   26.699152    14.175883    6.8477063 
   26.665383    14.228311    6.7979279 
   26.651134    14.278867    6.7631398 
   26.640965    14.326064    6.7309208 
   26.650409    14.372487    6.7134643 
   26.651352    14.416127    6.6990048 
   26.648983    14.477266    6.6781601 
   26.638516    14.533845    6.6499115 
   26.647422    14.567501    6.6266314 
   26.657343    14.599398     6.592703 
   26.671848    14.629154    6.5731787 
   26.695186    14.640577    6.5625264 
   26.728959    14.656427    6.5547128 
   26.775876    14.662522    6.5553443 
   26.798206     14.66795    6.5739189 
   26.797631    14.657002    6.5812944 
   26.799973    14.645387    6.5833903 
   26.810407    14.640744    6.5987403 
   26.806275    14.634777    6.6220429 
   26.817816    14.614458    6.6543889 
   26.860645    14.594238    6.6624719 
   26.895224    14.558261    6.6671901 
   26.923025    14.507316    6.6600817 
   26.944891    14.455068    6.6452877 
   26.946155    14.417605    6.6319091 
   26.937397    14.408814    6.6161628 
   26.918311    14.401618    6.6065697 
   26.890681    14.377688    6.6205691 
   26.872159    14.365587    6.6538759 
     26.8574    14.349717    6.6907866 
   26.827826    14.333746    6.7419001 
    26.78221     14.32832    6.7827823 
   26.728333    14.304633    6.8352252 
   26.670543    14.292958     6.878776 
   26.610327    14.288114    6.9062108 
   26.532287    14.252574    6.9233895 
    26.45723    14.226392    6.9404675 
    26.37717    14.187365    6.9598511 
   26.304675    14.150402    6.9634593 
   26.229046    14.120477     6.958011 
   26.171317    14.105776    6.9728465 
   26.117056    14.098516    6.9829442 
   26.072699     14.09559    7.0215538 
   26.034293    14.067666    7.0551367 
   26.007165    14.029716    7.0645239 
   25.977152    14.002618    7.0661398 
   25.946244    13.981335    7.0784462 
   25.924168    13.961453    7.0905899 
   25.884621    13.909285    7.1084991 
   25.823861    13.852707    7.1399551 
   25.774947    13.806871    7.1623735 
     25.7389    13.768483    7.1911685 
   25.709501    13.741592    7.2235801 
   25.686239    13.714478    7.2555605 
   25.667327    13.689092    7.2897794 
   25.653149    13.651486    7.3153153 
   25.638814    13.615177    7.3362727 
   25.629639    13.575047     7.355672 
   25.632339    13.525838    7.3581517 
   25.624217    13.473012    7.3593522 
    25.59071    13.430608    7.3606989 
    25.57502    13.405816    7.3702043 
   25.571423    13.387633    7.3680491 
   25.568944    13.382244    7.3738262 
   25.567625    13.379376    7.3636814 
   25.566311    13.394807    7.3540222 
   25.556851    13.411201    7.3538162 
   25.547401    13.438255    7.3662636 
   25.553413    13.474148    7.3918303 
   25.559248      13.5152    7.4300694 
   25.565423    13.551288    7.4674912 
   25.581383    13.566327    7.5194283 
    25.59463    13.575154    7.5748662 
   25.609137    13.577445    7.6336832 
   25.611548    13.590295    7.6732968 
   25.629081    13.614931    7.6688555 
   25.649694    13.639199    7.6502587 
    25.65155    13.658908    7.6316764 
   25.647028    13.668478    7.6071632 
   25.656953    13.668804    7.5957089 
   25.656287    13.666618    7.5696893 
   25.654611    13.658198    7.5494649 
   25.653379    13.640676    7.5240636 
   25.646127    13.633404    7.4930569 
   25.626027    13.638518    7.4693532 
   25.602521    13.666822    7.4492601 
   25.586334     13.69581    7.4154104 
    25.57164    13.728534    7.3893561 
    25.55448    13.754826    7.3650183 
   25.522579    13.779373    7.3350207 
   25.468605    13.798626    7.3000089 
   25.410572    13.818484    7.2879142 
   25.363877    13.822566    7.2887853 
   25.324616    13.819594    7.2878977 
   25.284595    13.810096    7.2759634 
   25.258228    13.781005    7.2722239 
   25.232396    13.753111    7.2719716 
   25.188663    13.725275    7.2730181 
   25.134281    13.685488    7.2679708 
   25.061882    13.648273    7.2630708 
    24.98979    13.618301      7.23917 
   24.913098    13.597321    7.2197642 
   24.831085    13.602778    7.2083429 
   24.752086     13.59939    7.1931611 
   24.685261    13.590244    7.1825231 
   24.633314    13.598832     7.173017 
   24.578005    13.625535     7.169681 
    24.54336    13.647644    7.1920623 
   24.553601    13.680736    7.2132062 
   24.569837    13.719975    7.2180192 
   24.575108     13.75623    7.2294803 
   24.585728    13.795598    7.2437287 
    24.60694     13.81672    7.2562356 
   24.624877    13.850031    7.2567923 
    24.63838    13.864156    7.2613984 
   24.634456    13.870657    7.2560967 
   24.642455     13.89433    7.2459015 
   24.662963    13.922986    7.2242871 
    24.68504    13.962248    7.2064315 
   24.677105     14.00512    7.1980313 
   24.671518    14.058845     7.195471 
   24.679436    14.124098    7.2036039 
   24.699363    14.201296    7.2124965 
   24.740848    14.261284    7.2133506 
   24.794637    14.308676    7.2040036 
   24.834503    14.338242    7.2070466 
   24.865704    14.362102    7.2367976 
    24.88003    14.392851    7.2675537 
   24.886588    14.411131    7.3051093 
   24.896649    14.411932    7.3436213 
   24.915309    14.416988    7.3615045 
   24.934531    14.392345    7.3809866 
   24.952986    14.356432    7.4037201 
   24.975037    14.320883    7.4245419 
   25.005955    14.303771    7.4332787 
   25.036387     14.29556     7.449027 
    25.07328     14.29926    7.4590485 
   25.104054    14.306628    7.4617752 
   25.117433    14.302976    7.4490464 
   25.119254    14.298837    7.4339639 
   25.132899    14.304314    7.4233956 
   25.136192    14.289225    7.4136058 
   25.140394    14.253398    7.4059545 
   25.146142    14.233055    7.4105418 
   25.123416    14.218553     7.408763 
   25.097152    14.205408    7.4406892 
   25.065218    14.192266    7.4847457 
   25.029206     14.17975    7.5313307 
   25.007986    14.163061    7.5687775 
    24.97994    14.152636    7.5936492 
   24.940533    14.161035    7.6100967 
   24.917995    14.182755    7.6253804 
   24.887425    14.190752    7.6419219 
    24.85185    14.201417    7.6522903 
   24.810701    14.215287     7.645766 
   24.767031    14.234204    7.6456395 
   24.735252    14.238486    7.6501514 
   24.705154    14.223895     7.653702 
   24.672954    14.205672    7.6529817 
   24.649347    14.196546    7.6551417 
   24.630335    14.191802    7.6844987 
   24.621105    14.185466    7.6954023 
   24.619878     14.17845    7.7061113 
   24.627075    14.167288    7.7267397 
   24.632181    14.151716    7.7694772 
   24.637369    14.127728    7.8305485 
   24.618627    14.117287    7.8709875 
   24.603157     14.10698    7.9071374 
   24.588687    14.083935    7.9444545 
   24.567429    14.067733    7.9786044 
   24.545291     14.07228    8.0277954 
   24.527467    14.069388    8.0647793 
   24.498519    14.072707    8.0976088 
    24.46434    14.087659    8.1351867 
   24.437587    14.096196    8.1652925 
   24.411384    14.107689    8.2065177 
   24.383772     14.12548    8.2450206 
   24.343224    14.153684    8.2990732 
    24.30417    14.193573    8.3309812 
   24.258403     14.23652    8.3560099 
   24.258709     14.27638    8.3699997 
   24.262622    14.327935    8.3780325 
   24.256855    14.371735    8.3882447 
   24.258527    14.426077    8.3755602 
   24.278822     14.50237    8.3641618 
   24.300713    14.584869    8.3424948 
   24.308925    14.670738    8.3285206 
   24.337684       14.757    8.3124982 
   24.370205    14.849284    8.2991515 
   24.381234    14.918317    8.2731231 
   24.397565    14.977479     8.247121 
   24.417023    15.042341    8.2180914 
   24.411777    15.101248     8.210558 
   24.377907     15.16439    8.2091427 
    24.34259    15.235164     8.232685 
   24.304475    15.313275     8.252158 
   24.281301    15.381624    8.2867864 
     24.2643    15.441189    8.3275708 
   24.257683    15.481923    8.3467179 
   24.246704    15.522137    8.3705819 
   24.225717    15.577597    8.3933936 
     24.2055    15.637152    8.4038277 
   24.180292     15.69476    8.4089361 
   24.156817    15.755936    8.4016754 
   24.144296    15.822708    8.3879032 
    24.12887    15.891185    8.3726067 
   24.118042    15.950477    8.3738333 
   24.106155    16.011157    8.3902022 
    24.10806    16.079925    8.4188198 
   24.100513    16.154398    8.4510307 
   24.072223    16.236554    8.4828934 
   24.042691    16.303814    8.5098425 
   24.007505     16.36812    8.5533895 
   23.969871    16.424399    8.5918495 
   23.924479    16.477308    8.6311228 
   23.890805    16.528779    8.6765681 
   23.869037    16.594534     8.721495 
   23.862956    16.670182    8.7505813 
   23.870927    16.759956    8.7666772 
   23.895796    16.844933    8.7728625 
      23.935    16.928692    8.7686844 
   23.976347    17.012668    8.7654151 
   24.024397    17.092553    8.7627546 
   24.087624    17.149514     8.778614 
   24.138176    17.195012    8.7970785 
   24.192682    17.234097    8.8115834 
   24.239622    17.274753    8.8221933 
   24.267098    17.306896    8.8499091 
   24.273048    17.344958    8.8613855 
   24.282682    17.391465     8.873931 
   24.302721    17.433393    8.8829731 
   24.328734    17.472243    8.8987355 
   24.352094    17.508321    8.9217825 
   24.373158    17.547958    8.9544343 
   24.401166    17.587137     8.976281 
   24.435241    17.616002    9.0002472 
   24.445719    17.634464     9.038102 
    24.43495    17.662087    9.0841235 
   24.423162    17.698429    9.1348979 
   24.397763    17.724969    9.1758433 
   24.363339    17.732412    9.1951728 
    24.31594    17.721325    9.1809376 
   24.263921    17.709373    9.1555433 
   24.209927    17.688324    9.1397292 
   24.155627    17.669401     9.139862 
   24.116582     17.63923    9.1352479 
   24.078149     17.60863    9.1274453 
   24.037491    17.588484     9.128344 
    24.00001    17.564249    9.1279629 
   23.964886    17.528152     9.126115 
   23.918204    17.495675    9.1223483 
   23.853234    17.479117    9.1112319 
   23.793206    17.469041    9.0983765 
   23.745851    17.471656    9.0852332 
   23.716207    17.486298     9.087172 
   23.687361    17.519581    9.0904203 
   23.657963    17.579318    9.0956177 
   23.625196    17.653367    9.1050162 
   23.588573    17.716724    9.1179393 
   23.542525    17.775043    9.1460323 
   23.510097    17.817484    9.1812273 
   23.475861    17.853656    9.2178259 
   23.454833    17.877884    9.2563047 
   23.451047    17.874186     9.268538 
   23.457105    17.890005    9.2603639 
   23.463003    17.907464    9.2464932 
   23.488817    17.922151     9.237891 
   23.522662    17.951303    9.2337343 
   23.557533    17.997915    9.2139637 
   23.604487    18.034269    9.1741411 
   23.638842    18.058707    9.1360096 
   23.665177    18.074124    9.0964873 
   23.704214    18.100572    9.0510569 
   23.763191    18.134394    9.0231617 
   23.811964    18.178047    8.9853188 
   23.854605    18.227853    8.9345662 
    23.91067    18.266851    8.8952204 
   23.974926    18.328251    8.8639459 
   24.019365    18.382452    8.8301197 
   24.070549    18.436706    8.8085884 
   24.130812     18.48023     8.799577 
   24.211378    18.517967    8.7998867 
   24.268843    18.558471    8.8109289 
   24.320958    18.605588     8.813834 
   24.366983    18.652784    8.8122919 
   24.405787    18.680287    8.8241674 
   24.447569    18.717493    8.8474607 
   24.462793    18.752795    8.8705313 
   24.466792    18.773819    8.8923187 
   24.492075    18.782205    8.9205376 
   24.531016    18.774708    8.9527925 
   24.565043     18.76532    8.9736351 
   24.594631    18.748591    8.9780613 
   24.604134     18.72794    9.0054056 
   24.603703    18.687882    9.0391251 
   24.606647    18.630217    9.0654937 
   24.608494     18.56942    9.1053103 
   24.621142    18.492097    9.1561015 
   24.643555     18.42972    9.2073025 
   24.663723    18.375099    9.2506221 
   24.675177    18.317871    9.3011597 
     24.6817    18.268843    9.3596508 
    24.68635    18.238306    9.4379635 
   24.689149     18.20509    9.4979412 
   24.695069     18.16808    9.5636095 
   24.706398    18.143917    9.6527846 
   24.717672    18.114839    9.7465808 
   24.741097    18.097304    9.8132631 
   24.761573    18.080094     9.891282 
   24.778435    18.057504    9.9619434 
   24.783016    18.032648    10.012472 
   24.770368    18.011551    10.031081 
   24.768588    17.992281    10.042815 
   24.768276    17.962351    10.056728 
    24.78388    17.959342    10.066219 
   24.803219    17.974085    10.076624 
   24.816071    17.978139    10.081917 
   24.819185    17.969174    10.099175 
   24.822815    17.947414    10.107258 
   24.829576     17.91626    10.095747 
   24.833683     17.89004    10.086016 
   24.819906    17.886152    10.084523 
   24.795582    17.887994    10.075826 
   24.770148    17.868058    10.074908 
   24.740955    17.863725    10.079256 
   24.725354    17.856801    10.086448 
   24.702192    17.839556    10.099776 
   24.666793    17.818212    10.108587 
   24.637126    17.809267    10.116281 
   24.620271    17.802711    10.114437 
   24.610752    17.801615    10.105836 
   24.590678    17.795521    10.090905 
   24.568913    17.796166    10.065078 
   24.572998    17.809145    10.026783 
   24.581096    17.807385    10.000449 
   24.601672    17.803292    9.9698767 
   24.636095    17.779974    9.9522446 
   24.681252     17.75933    9.9276421 
   24.748208    17.750352    9.9059192 
   24.812929    17.744336    9.8914704 
   24.873089    17.752697    9.8865669 
   24.946686    17.771867    9.8673701 
   25.018632    17.794939    9.8417248 
   25.091154     17.81727    9.8202906 
   25.164447    17.840459    9.7910162 
   25.243294    17.866608    9.7686141 
   25.326569    17.878691    9.7242521 
    25.41793    17.868208    9.6737136 
    25.50848    17.855589    9.6220092 
    25.60125    17.832828    9.5929128 
   25.696018    17.789849    9.5680516 
   25.769259    17.734527     9.529494 
   25.847375     17.66202    9.5054255 
   25.933586    17.585117    9.4846261 
   26.015484    17.528002    9.4469027 
   26.090043    17.476414    9.3950614 
    26.16998    17.428956    9.3426125 
   26.222983    17.378019    9.2909847 
   26.261366    17.333299     9.231729 
   26.292913    17.295078    9.1715154 
   26.338125    17.249794    9.1263202 
   26.382674    17.210922    9.0938352 
   26.417547    17.166956    9.0705143 
   26.459645     17.10361    9.0601949 
   26.508504     17.03857    9.0519393 
   26.554588    16.990029    9.0365051 
   26.607088    16.924622     9.018701 
   26.671843    16.846705    9.0054175 
   26.737835    16.790898    8.9831553 
   26.804349    16.738009    8.9570036 
   26.865647     16.69455    8.9397108 
    26.91951    16.665895    8.9296745 
   26.969721     16.65108    8.9335602 
   27.031667    16.651187    8.9588113 
   27.092479    16.638945    8.9932562 
   27.144243    16.623092    9.0308759 
   27.186881    16.611671    9.0572255 
   27.221975    16.630873    9.0911369 
   27.222523    16.669931    9.1257192 
   27.216143    16.710659    9.1590452 
   27.199628    16.738255    9.1969143 
   27.186924    16.751755    9.2376472 
   27.195462    16.771266    9.2682123 
   27.216074    16.788811    9.2981211 
   27.224762    16.794539    9.3312254 
   27.225845    16.779229    9.3606048 
   27.242117     16.76076    9.3900339 
    27.27005    16.752755    9.4050723 
    27.30319    16.745126    9.4265297 
    27.31868     16.73404    9.4410479 
   27.318119    16.716428    9.4567047 
   27.322474     16.68849    9.4618665 
   27.335549    16.661007    9.4701785 
    27.34969     16.63711    9.4689113 
   27.342174    16.624406    9.4760214 
   27.323078    16.621801    9.4736403 
   27.313981    16.627452    9.4705295 
   27.294687    16.636501    9.4511614 
   27.266833    16.640732     9.420843 
   27.257425    16.650187    9.4030133 
   27.249135    16.663408    9.3966915 
   27.241138    16.676604    9.3816824 
   27.243439     16.70939    9.3673923 
   27.217445    16.730593    9.3598764 
   27.191041    16.756306    9.3633298 
    27.16698    16.771996    9.3610315 
   27.138017    16.777702    9.3657481 
   27.101115    16.785794    9.3732097 
   27.054531    16.797138    9.3808319 
   27.024394    16.821507    9.3955074 
   27.001278    16.854843    9.4254334 
   26.988438    16.856666    9.4401371 
   26.986252    16.836973    9.4699435 
   26.988104    16.817023    9.5061545 
   26.966384    16.803826    9.5393394 
   26.942709     16.77906    9.5788582 
   26.914456    16.738655    9.6090856 
   26.873078    16.703156    9.6422857 
   26.833897    16.661951    9.6681961 
   26.791174    16.631182    9.7007288 
   26.740585    16.623458    9.7306119 
   26.721389    16.617999    9.7667871 
   26.718922    16.609586    9.7955489 
   26.718314    16.589423    9.7955532 
    26.72238    16.565994    9.7737708 
   26.727578    16.540406    9.7374653 
   26.742182     16.51094    9.6806761 
   26.751223    16.481908    9.6224107 
   26.766846    16.449936    9.5895767 
   26.792999    16.422924    9.5697575 
   26.802883    16.412342    9.5617691 
   26.821394    16.422067    9.5318531 
   26.852636    16.434133     9.511601 
   26.898703    16.434615    9.4971143 
   26.943977    16.435755    9.5007705 
   26.977718    16.429601    9.5065973 
   27.004132    16.420456    9.5183521 
     27.0194    16.418989    9.5197059 
   27.046951    16.410961     9.512572 
   27.071601    16.405368    9.5111909 
   27.087325    16.403334    9.5160985 
   27.100101     16.39769     9.515589 
   27.125251    16.396115    9.4836743 
   27.147645    16.406164    9.4663696 
   27.175212     16.41869    9.4630885 
   27.192922    16.408465    9.4706327 
    27.18298    16.386038    9.4847867 
   27.178063    16.350017    9.4835612 
     27.1733    16.337037    9.4553609 
   27.178904    16.348182    9.4099688 
   27.173659    16.341749    9.3444776 
   27.161506    16.330226    9.2934125 
   27.157913    16.322255    9.2426183 
   27.163714    16.319589    9.1893495 
   27.173071    16.324415    9.1358064 
    27.16975    16.336693    9.0896157 
   27.157816    16.360809    9.0538596 
   27.150327    16.399769    9.0155708 
   27.133003    16.451792    8.9752936 
   27.130034    16.514527    8.9357013 
   27.122914    16.587845    8.8881873 
   27.109206     16.66203    8.8526475 
   27.086813    16.707277    8.8221736 
   27.066242    16.750535    8.7973366 
   27.028166    16.778673    8.7797118 
    26.99523    16.785352    8.7617757 
     26.9766    16.774408    8.7374876 
   26.978199     16.75148    8.7169595 
   26.966557    16.715245    8.6962837 
   26.952019    16.662621    8.6702822 
   26.925789    16.609626    8.6697455 
   26.889113    16.542894    8.6701049 
   26.845834    16.467826    8.6731223 
   26.821628    16.399564    8.6682652 
   26.803041    16.338811    8.6763296 
   26.790579    16.266032     8.698214 
   26.764226    16.205065    8.7215674 
   26.745853     16.17171    8.7336416 
   26.735307     16.14954    8.7697891 
   26.716944    16.130619    8.8121928 
   26.709421    16.100212    8.8510809 
   26.702031    16.064263    8.8922718 
   26.689265    16.045435    8.9392227 
   26.685941     16.04196    8.9888449 
   26.691797      16.0407    9.0451866 
   26.721593    16.041036    9.0774989 
   26.765034     16.02287    9.1117221 
   26.809536    15.999902    9.1540055 
   26.840036    15.951743    9.1968222 
   26.849398    15.887265    9.2493262 
   26.886486    15.822098    9.3151552 
   26.937621    15.769779    9.3771245 
   26.998471    15.714754    9.4244595 
   27.072405    15.657677    9.4584762 
   27.133008    15.610133    9.4884155 
   27.189695    15.569109    9.5134531 
     27.2468    15.523379    9.5294291 
   27.289593    15.481603    9.5383487 
   27.332402    15.461891    9.5395178 
   27.355872    15.457748    9.5443125 
   27.349878    15.436877    9.5312715 
   27.324128     15.41098    9.5041017 
   27.269645    15.381067    9.4733325 
   27.214619    15.372578    9.4228311 
    27.16453     15.37388    9.3735665 
   27.103681    15.388588    9.3438448 
   27.064381    15.404773    9.3236121 
   27.029655    15.407161     9.290121 
   27.000593    15.395083    9.2580688 
   26.981116    15.384554    9.2363666 
   26.967621    15.370124     9.208131 
   26.942996    15.355322    9.1833412 
   26.887093    15.347018    9.1506194 
   26.813634    15.325378    9.1228009 
   26.733583    15.288105    9.0949514 
    26.65085    15.251394    9.0605547 
   26.563935    15.216972    9.0076947 
   26.468725    15.170438    8.9615774 
   26.378606    15.126656    8.9185126 
   26.308601    15.099429    8.8664442 
   26.241742    15.120566    8.8233877 
   26.171069    15.129326    8.7703757 
   26.094465    15.126809     8.712844 
   26.020426    15.128358    8.6444031 
   25.971268    15.127124    8.5836058 
   25.940544    15.139232    8.5278509 
   25.919656    15.146562    8.4743896 
   25.892589     15.16273    8.4312704 
   25.847961    15.186519    8.3917023 
   25.827248    15.205145    8.3583446 
   25.822323    15.188909    8.3239336 
   25.830506    15.175961    8.2854573 
   25.841947    15.167319    8.2444576 
    25.84848    15.147469    8.2050482 
   25.870071    15.133962    8.1764876 
    25.88447    15.117855    8.1524415 
   25.902713    15.107546    8.1311484 
   25.920559    15.076681     8.122321 
    25.93621    15.034201    8.1193738 
   25.950949    15.012943    8.1253991 
   25.961552     15.01091    8.1439905 
   25.965058    15.012193    8.1559811 
   25.953226    15.017822    8.1765889 
   25.938759     15.03371    8.1971772 
   25.910201    15.041033    8.2099881 
   25.885048    15.050355    8.1952599 
   25.868593    15.067012    8.1842068 
   25.851037    15.064949    8.1658116 
   25.831149    15.051685    8.1437256 
   25.811232    15.019936    8.1113799 
   25.797595      14.9574    8.0748476 
    25.77292    14.898661    8.0276794 
   25.741295    14.852292     7.969345 
   25.724387    14.804171    7.9233646 
   25.709809    14.755921    7.8804065 
    25.70317    14.712343    7.8569767 
   25.709972    14.680877    7.8591773 
   25.713158    14.651669    7.8673022 
   25.709017    14.632006    7.8794877 
   25.712945    14.615425    7.8678023 
   25.703606    14.598631    7.8491741 
    25.69417    14.588634    7.8424808 
   25.699249    14.575395    7.8054762 
   25.697488    14.549697    7.7588385 
    25.68708    14.504717    7.7179606 
   25.694887    14.471646    7.6932935 
   25.702633    14.443482    7.6476922 
   25.699727    14.411252     7.614439 
   25.699862    14.396832    7.5651368 
   25.696376    14.398819    7.5063427 
   25.694362    14.399446    7.4623325 
   25.680671    14.396952    7.4416139 
   25.673701    14.385423    7.4336469 
   25.676427    14.378064    7.4478571 
   25.690416      14.3674     7.467418 
    25.73465     14.36541    7.4983845 
    25.77056    14.366481    7.5240433 
   25.803999    14.363594    7.5400092 
   25.831918    14.361613    7.5603567 
   25.845312    14.356567    7.5801202 
   25.859961     14.36187    7.6080682 
   25.887534    14.381801    7.6273836 
    25.90795    14.400909    7.6467234 
   25.919689    14.430048    7.6642215 
   25.930972    14.458542    7.6682881 
   25.942503    14.478252     7.665867 
   25.956571    14.494389    7.6529368 
   25.976818    14.497505    7.6247117 
   25.998579    14.484575    7.6059048 
   26.007881    14.465328    7.6050147 
   26.019199    14.457831    7.6109025 
   26.016207    14.449487    7.6137772 
    26.00877    14.448877    7.6077893 
   25.996552     14.44005    7.6039352 
   25.968441    14.430552    7.6047849 
   25.947418    14.399388    7.6179924 
   25.921228    14.350044    7.6142223 
   25.913228    14.303771    7.6041026 
   25.908629    14.233258    7.5812767 
   25.909914    14.170651    7.5339196 
   25.914867    14.122782     7.486319 
   25.924274     14.08365    7.4293325 
   25.941214    14.045427     7.374047 
   25.953502     13.98814    7.3286906 
   25.964282    13.928684    7.2754332 
   25.969274    13.862382    7.2332312 
   25.995568    13.816015    7.2047439 
    26.01724    13.782731    7.1669426 
   26.048075     13.75042    7.1303785 
   26.070272    13.737594    7.1017223 
   26.082051    13.739102     7.075063 
   26.089183    13.742517    7.0306756 
   26.096166    13.729782    6.9784307 
   26.110484    13.693688    6.9323468 
   26.125834    13.666341    6.9007417 
   26.141964    13.659773    6.8707953 
   26.159063    13.667779    6.8536876 
    26.17538    13.693459    6.8465368 
   26.191432    13.717544     6.846524 
   26.202967    13.731999    6.8560935 
   26.209006    13.751571    6.8737109 
   26.204738    13.772835     6.883111 
   26.215309    13.802033    6.8823254 
   26.220753    13.837219    6.8798935 
   26.227016      13.8706    6.8785739 
   26.237777    13.881538    6.8824656 
   26.262663    13.885113    6.8950098 
   26.299212    13.881301    6.9175487 
   26.337542    13.858752    6.9310903 
   26.359387     13.85303    6.9523034 
   26.385601    13.852947    6.9841737 
   26.433208    13.840497    6.9982307 
   26.476377    13.818997    7.0118189 
   26.497061    13.791119    7.0021171 
   26.517736     13.75675    6.9835899 
   26.540252    13.739119    6.9588632 
   26.567759    13.719713    6.9410989 
   26.621457    13.704447    6.9278063 
   26.680555    13.685567    6.9165635 
   26.732932    13.670809    6.9046769 
   26.797867    13.644602    6.8984104 
   26.862597     13.62026    6.8841918 
   26.919641    13.614138    6.8607263 
   26.957193     13.62173    6.8260245 
   26.984063    13.631887    6.8093061 
    27.01756    13.638632    6.7942851 
   27.054904    13.634118    6.7810759 
   27.086114    13.625742    6.7689945 
   27.103836    13.627104    6.7542676 
   27.111603    13.631883    6.7348983 
   27.122619    13.619328    6.7372278 
   27.124039    13.617234    6.7396249 
   27.117202    13.612255    6.7443942 
   27.095414    13.641082     6.758504 
   27.065189    13.703118    6.7969466 
   27.006022    13.762542    6.8353657 
   26.934512    13.806386    6.8694293 
   26.896849    13.837573    6.8957488 
   26.869981    13.875224    6.8995873 
   26.860969    13.899536    6.8923343 
   26.840055    13.916489     6.892714 
   26.819003    13.934953    6.9038551 
   26.800307    13.972359    6.9220305 
    26.78712    14.011075    6.9600668 
   26.773591    14.041847    6.9919149 
   26.758598    14.056121    7.0318959 
    26.76204    14.087301    7.0943434 
   26.775982    14.129386    7.1637965 
   26.796908    14.172163     7.218258 
   26.810917     14.20408    7.2649434 
   26.828365    14.226174    7.3024507 
    26.84378    14.246613    7.3385265 
   26.840581    14.250474    7.3756394 
   26.841134    14.249048    7.4098575 
   26.848876    14.254828    7.4359727 
   26.844101     14.26387     7.457924 
   26.837348    14.275596    7.4688584 
   26.811854    14.282564    7.4702879 
   26.782531    14.293318    7.4939271 
    26.76192    14.307739    7.5058598 
   26.749949    14.294692    7.5164239 
   26.752253    14.267091    7.5317735 
   26.759229    14.253247    7.5566729 
   26.773014    14.258955     7.563989 
   26.781843     14.28097    7.5699171 
   26.782733    14.297108    7.5831122 
   26.780134    14.298094    7.5871727 
   26.788255     14.29172    7.5908208 
   26.797317    14.290682    7.5810469 
   26.792777    14.265948    7.5825156 
   26.772877    14.229904    7.5794923 
   26.736664    14.183838     7.569607 
   26.696773    14.159857    7.5631183 
   26.658826    14.140946    7.5542379 
   26.620323    14.122222    7.5459541 
    26.57537    14.107447    7.5297455 
   26.547997    14.089314    7.5299664 
   26.531572    14.090962    7.5536012 
    26.48702     14.09284    7.5779114 
   26.444604    14.108789     7.584939 
    26.41885    14.149439    7.5884928 
   26.385498    14.185142    7.5840628 
   26.360334    14.181835    7.5727513 
   26.339246    14.153737    7.5703698 
   26.319214    14.124424    7.5618392 
   26.304238    14.098479    7.5517013 
   26.283603    14.080982    7.5535309 
   26.253819     14.06335    7.5837022 
    26.22408    14.043751    7.6264012 
   26.190586    14.041215    7.6837989 
   26.155058    14.045659    7.7425978 
   26.108659    14.038393    7.7971581 
   26.064519    14.034332    7.8336391 
   26.009077    14.025464    7.8742758 
   25.964379    14.012757    7.9239992 
   25.942343    14.005314    7.9712488 
   25.929979    14.011933     8.021658 
   25.926795    14.021203    8.0758889 
   25.935149     14.03251    8.1356179 
   25.944929    14.026675    8.1976498 
   25.943056    14.012693    8.2647381 
   25.929439    13.994704    8.3310206 
   25.909143     13.98944    8.3750136 
   25.900999    13.997037    8.4194255 
   25.894118     14.00632    8.4565351 
    25.88549    14.016283    8.4616385 
   25.876934    14.029851    8.4543889 
   25.884934    14.052128    8.4455419 
   25.902796    14.087718       8.4142 
   25.909732    14.117447    8.3697339 
   25.912628    14.138529    8.3401903 
    25.90512    14.154142    8.3234798 
   25.891368    14.177638    8.3007161 
   25.889049    14.210918    8.2940537 
    25.90069    14.261198    8.2803089 
   25.906546    14.315366    8.2549598 
   25.898591    14.356823    8.2267756 
   25.895276    14.368948    8.1847772 
   25.891666    14.360333    8.1430873 
   25.878297    14.350982    8.1096937 
   25.885887    14.341584    8.0843338 
   25.905876    14.329102    8.0618279 
   25.933829    14.310807     8.025079 
   25.949791    14.282599    7.9914988 
   25.955501    14.232459    7.9590621 
   25.968362    14.184189    7.9314306 
   25.987857    14.132816    7.9249796 
   26.015015    14.090311     7.931599 
    26.05746    14.045109    7.9440762 
   26.079115    14.000096    7.9557563 
   26.090225    13.954481    7.9711399 
   26.072599     13.89943      7.98306 
   26.043445    13.854283     7.996148 
    26.02886    13.819568    8.0236532 
    26.00296    13.788098    8.0571172 
   25.974048    13.739939    8.0948996 
   25.936795    13.699997      8.12331 
    25.88476    13.678123    8.1314052 
    25.83076    13.671126    8.1386789 
   25.752468    13.656376     8.150319 
   25.670944    13.657715    8.1591574 
    25.59998    13.687539    8.1589151 
    25.52106    13.705736    8.1568025 
   25.450416    13.742469    8.1543031 
   25.389886    13.777529    8.1497317 
   25.325556    13.804273    8.1470624 
   25.269749     13.80327    8.1382613 
   25.223664    13.798981    8.1230291 
   25.159547    13.806328    8.1082927 
   25.103018    13.821764    8.0875468 
   25.041356    13.833658    8.0671654 
   24.993748    13.839713    8.0537342 
   24.971796    13.857979    8.0396683 
   24.964047    13.889764    8.0304272 
   24.950334    13.913734    8.0045348 
   24.936601    13.932224     7.971944 
   24.951368    13.948156     7.953184 
   24.969483    13.952088    7.9543837 
    24.96962    13.928416    7.9607926 
   24.961041     13.90593    7.9760747 
   24.954515    13.882951    7.9783228 
   24.958248    13.848727    7.9750904 
   24.964065    13.807694    7.9590351 
   24.976283    13.763335    7.9489738 
   24.985929    13.721542     7.943506 
   24.984697    13.676289    7.9293168 
   24.999781    13.642368    7.9137763 
   25.029867    13.613292    7.8701071 
   25.046782    13.593238    7.8364528 
   25.063892    13.578031    7.8142193 
   25.077394    13.560118    7.8077541 
   25.086553    13.548587     7.805504 
   25.094596    13.533914    7.7952782 
   25.103806    13.520543    7.7869435 
   25.122708    13.523167    7.7815693 
     25.1347    13.530072    7.7741475 
   25.136158    13.541004    7.7608893 
   25.116498    13.552029    7.7286975 
   25.108951    13.556251    7.6903638 
   25.115789    13.573122    7.6633572 
   25.121351    13.606138    7.6385598 
   25.104093    13.617351    7.6190525 
    25.08579    13.634592    7.5886736 
   25.067316     13.66317    7.5508545 
   25.041221    13.698568    7.5121733 
   25.007455    13.742237    7.4811534 
   24.965913    13.794416    7.4573859 
   24.920885     13.84204    7.4476309 
   24.891838    13.869804    7.4390803 
   24.854415    13.900596    7.4384033 
   24.803884    13.934979    7.4203873 
   24.748969    13.970712    7.3919715 
   24.687748    14.024854    7.3575518 
   24.628286    14.108282    7.3275077 
   24.600228    14.181628    7.3108368 
   24.576308    14.234265    7.3029733 
   24.572762    14.272616    7.2921205 
    24.57368    14.297222    7.2734805 
   24.578954    14.311569    7.2535808 
   24.611413     14.30323    7.2509138 
   24.649945    14.286915    7.2673489 
   24.702566    14.295591    7.2807111 
   24.746898    14.308322    7.2831177 
    24.80306    14.331981    7.3043232 
   24.859285    14.371284     7.333742 
   24.879841    14.408628    7.3676762 
   24.882028    14.449788    7.3937583 
   24.883667    14.497128    7.4145547 
   24.892576    14.548351    7.4541579 
   24.894029    14.598634    7.5218198 
   24.876145    14.636078    7.5751001 
   24.842799    14.666553    7.6144014 
   24.786563    14.708765    7.6513619 
   24.739218    14.751302    7.6710406 
   24.694825    14.792984    7.6737932 
   24.670298    14.838957    7.6751725 
   24.666067    14.888843    7.6716498 
   24.666542    14.946147    7.6810062 
   24.671605    15.004027    7.6807331 
   24.675227    15.063052    7.6903201 
   24.691607    15.095197    7.7033387 
   24.731016    15.107644    7.7146267 
   24.767889    15.129856    7.7293889 
   24.801837    15.159872      7.75268 
   24.839029    15.200701    7.7785269 
   24.883878    15.233216    7.7910101 
   24.926434    15.251166     7.808372 
    24.95472    15.232973    7.8332058 
   24.992055    15.197381     7.873271 
   25.033438    15.167687    7.9173159 
   25.076519    15.134373    7.9538142 
   25.107449    15.102935    8.0042667 
   25.135691    15.081703    8.0503599 
   25.182036    15.067481    8.0857798 
   25.220555    15.062143    8.1073071 
   25.238284    15.060143    8.1213151 
   25.240661    15.055839    8.1312192 
   25.250648    15.060007    8.1467912 
    25.27627    15.074928    8.1622124 
   25.294565    15.077996    8.1933359 
   25.287993    15.080357    8.2256142 
   25.288546    15.082012    8.2650259 
   25.287335    15.078758    8.2907903 
   25.281247    15.061842    8.3046523 
    25.28135    15.042377    8.3166026 
   25.280118    15.014473    8.3358239 
   25.265505    14.987795    8.3368246 
   25.243598    14.961255     8.336544 
   25.232364    14.925379    8.3339792 
   25.237227    14.897051    8.3220869 
   25.247229    14.858155    8.3043694 
   25.262144    14.805921    8.2858176 
   25.298978    14.751312    8.2697418 
   25.332856    14.686775    8.2596368 
   25.363228    14.645702    8.2484426 
   25.384287    14.619858     8.245404 
    25.37924    14.583239    8.2536602 
   25.371676    14.552442    8.2776421 
   25.345722    14.528133    8.3114113 
   25.322273    14.509761    8.3365346 
   25.301438    14.492267    8.3540731 
   25.283667    14.471444    8.3686427 
   25.275675    14.453997     8.386037 
   25.268493    14.444382    8.4084193 
   25.244703    14.433058    8.4190362 
   25.224281    14.447883    8.4318404 
   25.196729    14.473255    8.4459392 
   25.177928    14.498595     8.454132 
   25.183761    14.525297    8.4535635 
   25.196783    14.546545    8.4749305 
    25.21404    14.559793    8.4946883 
    25.24094    14.577118     8.516444 
   25.252231    14.600739    8.5440449 
   25.245664    14.633269    8.5678017 
    25.23155    14.667527    8.5766528 
   25.209043    14.703741    8.5903657 
   25.179159    14.738338    8.5842026 
   25.143195    14.764274    8.5678139 
   25.105069    14.788867    8.5631445 
   25.056581    14.812661     8.568358 
   25.008877    14.833509    8.5689646 
   24.973621    14.833484    8.5734172 
   24.955034    14.831628    8.5715425 
   24.931564    14.828972    8.5700102 
   24.884626    14.816947    8.5688476 
   24.829028    14.825961    8.5849817 
   24.778427    14.838527    8.6065853 
   24.750532    14.843178    8.6312191 
   24.733764    14.844908    8.6820703 
   24.727002    14.842565    8.7319552 
   24.731303    14.846735    8.7946717 
   24.738808    14.850742    8.8579366 
   24.766043     14.84744    8.9114657 
   24.774502    14.847047    8.9512558 
   24.792459    14.848164    8.9955188 
   24.803823    14.828896    9.0290268 
   24.813019    14.815602    9.0406728 
   24.816379    14.801677    9.0415935 
   24.812649    14.801584    9.0439727 
   24.802928    14.801253    9.0517984 
   24.790921    14.777841    9.0474442 
   24.800611    14.752182    9.0484054 
   24.797712     14.72039    9.0546083 
    24.80475    14.687203    9.0524993 
   24.804329    14.656323    9.0466669 
   24.794645     14.61543    9.0528296 
   24.793562    14.552363    9.0644232 
   24.792377    14.477222    9.0785892 
   24.792817    14.410168    9.0944731 
   24.764547    14.351747    9.1141203 
   24.715991    14.301787    9.1417429 
    24.68213    14.258746    9.1846122 
   24.663963    14.211464    9.2221341 
   24.636467    14.159479    9.2538941 
   24.602063    14.097505    9.2723071 
   24.574917    14.041262    9.2813308 
   24.555231    13.978612    9.2812245 
    24.53156    13.929447    9.2926399 
   24.490066    13.902556    9.3075519 
   24.460706    13.895272    9.3475405 
   24.447483    13.911805    9.3898175 
   24.447546    13.957893    9.4269055 
   24.464368    14.003556    9.4799668 
   24.458045    14.054886    9.5268186 
    24.43468     14.09033    9.5636705 
   24.416666    14.107513    9.5969803 
   24.409521    14.132763       9.6262 
   24.409898    14.162692    9.6611099 
   24.415269     14.18614    9.6835057 
   24.407094    14.205494    9.6990474 
   24.388547    14.195942    9.7305913 
   24.367051    14.188681    9.7547337 
   24.339282    14.198917    9.7898182 
   24.307246    14.197161    9.8114394 
   24.282817    14.203636    9.8285619 
   24.252954     14.22055    9.8570755 
   24.217187    14.257461    9.8937436 
   24.158229    14.295276    9.9199609 
   24.090814    14.326091    9.9156554 
   24.013385    14.352674    9.9156277 
   23.934525    14.373295    9.9170478 
    23.87933    14.387391    9.9071626 
   23.821281     14.39277     9.897436 
   23.776142     14.40201    9.8969492 
   23.744217    14.405905    9.8902503 
   23.708518    14.404333    9.8954482 
   23.681929    14.427922    9.9008322 
   23.648787    14.472908    9.9210731 
    23.62579    14.484658     9.937267 
   23.609637    14.480699    9.9591898 
   23.586872     14.47995    10.001016 
   23.563661    14.503084    10.044886 
   23.549118    14.515305    10.115028 
   23.546483    14.513222    10.182922 
   23.552224    14.510755    10.245493 
   23.548164    14.503925    10.299803 
   23.534474    14.515932    10.366591 
   23.539985    14.518232    10.440491 
   23.554703    14.502953    10.514505 
   23.557509    14.488019    10.596663 
   23.564253    14.470444     10.68174 
    23.56876    14.452319    10.764615 
   23.571011    14.431062    10.855341 
   23.568705    14.398977    10.954146 
   23.579169    14.360593    11.051601 
   23.589575     14.32029    11.139203 
   23.581716    14.293082    11.223697 
   23.570051    14.257762     11.29992 
   23.551316    14.203427    11.364071 
    23.54305    14.149223    11.425915 
   23.538901    14.103508    11.488834 
   23.515403    14.069508    11.528621 
   23.478921    14.037833    11.562584 
   23.434175     14.01683    11.586726 
   23.389926    13.992735    11.605131 
   23.350662    13.977409    11.624975 
   23.336832    13.954702    11.640049 
   23.328844    13.922582    11.661255 
   23.317057     13.89331    11.687681 
   23.311527    13.855766    11.707413 
   23.311161    13.826057    11.726771 
   23.298254    13.810878    11.738652 
   23.280773    13.818405    11.726381 
   23.277607    13.816748    11.710217 
   23.274273    13.809136    11.693836 
   23.257591    13.812253    11.676219 
   23.243086    13.809729    11.673337 
   23.216473     13.80531    11.666257 
   23.184486    13.807964    11.644602 
   23.148997    13.803204    11.606204 
   23.105893    13.810101      11.5581 
   23.059639    13.813197    11.511101 
   22.995826    13.815152    11.478391 
   22.945709    13.815223    11.455705 
   22.910996    13.800857    11.447411 
   22.865694    13.785489    11.421285 
   22.802887    13.769039    11.394754 
   22.753116    13.751311    11.371358 
   22.714784    13.726756    11.361224 
   22.670281    13.693231    11.348311 
   22.617878    13.660072    11.339443 
   22.569988    13.606957    11.317567 
     22.5245    13.543831    11.293204 
   22.483416    13.505183    11.254793 
   22.454793    13.463912    11.206913 
   22.445314    13.407791    11.158014 
   22.462002    13.334329    11.122667 
   22.471396    13.270012    11.089118 
   22.473707    13.216285    11.052102 
   22.471801    13.193795    11.005864 
    22.48287    13.189896    10.956595 
   22.501329      13.1788    10.905772 
   22.509411    13.168302    10.854315 
   22.526766    13.151766    10.819986 
   22.538553    13.145843    10.797476 
    22.54877    13.135018    10.778366 
   22.575822    13.105357    10.744614 
   22.592203    13.084327    10.695353 
   22.609891    13.057437    10.661354 
   22.626005    13.050332     10.64563 
   22.640944    13.053172    10.645633 
   22.651472    13.066799    10.628585 
   22.666305    13.087291    10.599515 
   22.673175    13.099256    10.560744 
    22.68322    13.116437    10.523762 
   22.707354    13.139377    10.495739 
   22.725328    13.149787    10.459741 
   22.745194    13.153191    10.438743 
   22.771207    13.139563    10.431043 
   22.794015    13.134168    10.422226 
   22.812928    13.144718    10.417927 
   22.834097    13.163686    10.428694 
   22.857389    13.168892    10.456079 
    22.87165    13.155355    10.504255 
   22.878618    13.148142     10.55414 
    22.89393    13.142595    10.616752 
   22.924794    13.149348    10.678947 
    22.95152    13.152328    10.750626 
   22.962027    13.161472    10.800739 
   22.961932    13.172984    10.822324 
   22.973058    13.163918    10.825272 
   23.013003     13.14716    10.821051 
    23.07544    13.137082     10.81242 
   23.137576    13.125534    10.799242 
   23.167482    13.118546    10.810795 
   23.189331    13.117259    10.820403 
    23.19832    13.104537    10.845572 
    23.21602    13.088286    10.867975 
   23.254375    13.075542    10.869008 
   23.290557    13.053305    10.874161 
   23.316047    13.024189    10.863706 
   23.335505    13.007975    10.839486 
   23.347465    12.997038    10.799728 
   23.346174    13.006952    10.770987 
   23.336695    13.015511    10.743373 
   23.334505    13.023053    10.709434 
   23.328542    13.042128    10.672975 
   23.314659    13.062399    10.657612 
   23.291684     13.08683     10.64545 
    23.27605    13.117528    10.642301 
   23.256538    13.146495    10.645209 
   23.236746    13.176325    10.650107 
   23.207934    13.199951    10.672622 
   23.191652    13.201491    10.691233 
   23.196885    13.200317    10.718724 
   23.206129    13.192918      10.7509 
   23.222523    13.208191    10.786398 
   23.245995    13.247189    10.834303 
   23.262371    13.284768    10.879297 
   23.260882    13.321029    10.924897 
   23.248001    13.357942    10.951093 
   23.237467    13.392513    10.973813 
   23.231835    13.421643    10.998376 
   23.216321    13.427181    11.023247 
   23.182237     13.44199    11.052957 
   23.127896     13.44539    11.086741 
    23.08937    13.436264    11.124008 
   23.057939    13.421877    11.150922 
   23.024272    13.396011    11.179783 
   22.965872     13.36209    11.197261 
   22.901632    13.321232    11.215428 
   22.844426    13.285618    11.237105 
   22.797233    13.248693    11.247162 
   22.734395    13.205018    11.232871 
   22.667517    13.163301    11.214941 
   22.617253    13.110031    11.184944 
   22.582922    13.057527    11.170418 
   22.551547    13.022714    11.155263 
   22.534144    12.967385     11.14998 
   22.515202    12.912136    11.153406 
   22.492396    12.878594    11.159326 
   22.476547     12.84978    11.171282 
   22.451463    12.824219    11.188759 
   22.433333    12.804378    11.195736 
   22.427535    12.772363    11.190874 
   22.420121    12.741596    11.198482 
   22.401013    12.706509    11.211227 
   22.354897    12.665647    11.237799 
   22.285366    12.614951    11.245777 
   22.202366    12.561472     11.25471 
   22.142417     12.52538    11.254667 
   22.110168    12.501624    11.263155 
   22.075269     12.49441    11.278288 
   22.046054    12.494923    11.292876 
    22.05041    12.504526    11.306806 
   22.041714    12.517769    11.311493 
   22.030956    12.517924    11.309407 
   22.014739     12.51162    11.283616 
   22.000858    12.484885    11.230494 
   22.003858    12.450346    11.181261 
   22.012456    12.435398    11.127473 
   22.035416     12.42813    11.081216 
   22.062551    12.445132    11.028318 
   22.101124    12.455644    10.979431 
   22.144104    12.458519     10.93238 
   22.176932     12.44755    10.897205 
   22.198744    12.432244     10.88318 
   22.219646    12.406327    10.870307 
   22.235234    12.388387    10.872451 
   22.246714    12.378412    10.879661 
   22.280401    12.368327    10.879311 
     22.3189    12.348984    10.887336 
   22.364868    12.318222    10.895041 
   22.413765    12.306267    10.889588 
   22.450729    12.289313    10.884145 
   22.469899    12.268035    10.874699 
   22.471096    12.254642    10.876908 
   22.459643    12.227275     10.87902 
   22.447732    12.196759    10.873594 
   22.444737    12.181087    10.868829 
   22.431332    12.162949    10.854184 
   22.407812     12.14916     10.83703 
   22.395352     12.13127    10.844852 
   22.399168    12.099619    10.866055 
   22.429137    12.055877     10.87086 
   22.463691    12.016694    10.850334 
   22.481496     11.99319    10.833729 
   22.476033    11.963165    10.812457 
   22.453621    11.927994    10.819717 
   22.426618    11.886369    10.839012 
   22.402021    11.881468    10.840195 
   22.399868    11.893388    10.833411 
   22.401521    11.890302    10.835442 
   22.390087     11.87269    10.852928 
   22.376134    11.864037    10.877525 
   22.365355    11.857583    10.899254 
   22.345934      11.8529    10.905152 
   22.325393    11.857172    10.896125 
   22.312294    11.860814    10.885556 
   22.309987     11.87206    10.879491 
   22.317442    11.890848    10.884764 
   22.339826    11.912618    10.903067 
   22.371831    11.921528    10.897002 
    22.40939    11.919207    10.878595 
   22.423869    11.911924    10.869908 
   22.442931    11.897138    10.861487 
    22.47113    11.887172    10.844878 
   22.480547    11.890842    10.824744 
   22.477305    11.905124    10.790267 
   22.503535    11.912416    10.747397 
   22.544673    11.906114    10.711425 
   22.595913     11.90256    10.701214 
    22.65368    11.920003    10.704732 
   22.695341    11.963714    10.725364 
   22.724245    12.000613    10.734126 
   22.758361    12.060532    10.753711 
   22.804348    12.102492    10.764531 
   22.864327    12.126692    10.773899 
   22.911762      12.1488    10.768228 
   22.953126    12.172522    10.768921 
   22.986108    12.193609    10.759415 
   23.017379    12.207786    10.742541 
     23.0569    12.237552    10.725914 
   23.078605    12.256767    10.722659 
   23.088445    12.266652    10.726836 
   23.088873    12.289904    10.730521 
    23.06125    12.311676    10.733272 
    23.03369    12.366917    10.726227 
   23.032785    12.396655    10.702834 
    23.04175     12.40829    10.681262 
    23.06001    12.431102     10.65519 
   23.054974    12.449243    10.649745 
   23.059209    12.461316    10.642778 
   23.048622    12.471575    10.634524 
    23.04293    12.471347    10.607487 
   23.045177    12.471257     10.57129 
   23.058679    12.470977    10.546717 
   23.072634    12.483922     10.51542 
   23.088747    12.503462    10.477437 
   23.088925    12.518038    10.448039 
   23.096687    12.539989    10.432964 
   23.098858    12.556616    10.428138 
   23.102394    12.576345    10.441796 
    23.10477    12.626384    10.452779 
   23.106461    12.682157    10.466236 
   23.112964    12.715554    10.462627 
   23.125552    12.735252    10.454221 
   23.142836    12.766983    10.443074 
   23.145074    12.789989    10.438004 
   23.147622    12.795004    10.440806 
   23.143419    12.793556    10.437479 
   23.165711    12.789314    10.428327 
   23.194035    12.793643    10.412301 
   23.218391    12.779735    10.398331 
   23.236392    12.763862    10.377272 
   23.251239    12.745469     10.35363 
   23.275828     12.72758    10.314781 
   23.293599    12.697644    10.266145 
   23.318894    12.656492    10.205201 
   23.373327    12.596687    10.135672 
   23.415069    12.533244    10.064187 
   23.437734    12.469699    10.003012 
   23.473152    12.402281     9.946651 
   23.501066    12.333806    9.8917738 
    23.53338    12.266793    9.8541165 
    23.56236    12.203869    9.8162592 
   23.594775    12.144699    9.7825792 
   23.635453    12.091999    9.7522103 
   23.695342    12.045395    9.7242632 
    23.76195     12.00092    9.6870407 
   23.816123    11.947933    9.6414463 
   23.871061     11.89771    9.5879315 
   23.928897    11.843034    9.5456472 
    23.98052    11.804034    9.4905566 
   24.017389    11.764022    9.4225373 
   24.033991    11.730212    9.3584602 
   24.036862    11.695516    9.2899568 
   24.042585     11.66444    9.2323858 
   24.069548    11.647618    9.1698494 
   24.098604    11.643806    9.0968619 
   24.152485    11.655998    9.0247212 
   24.193799    11.668887    8.9616401 
   24.223274    11.685478    8.8927506 
   24.236088     11.70405    8.8329617 
   24.233564    11.734275    8.7600746 
   24.238989    11.770103    8.6583652 
   24.240536    11.801735    8.5602616 
    24.24638    11.828927    8.4713392 
   24.270133    11.853975    8.4038156 
   24.281681    11.873991    8.3628277 
   24.289111    11.897097    8.3327642 
   24.285091    11.914668     8.306686 
   24.274736    11.935278     8.296057 
   24.265079    11.947062    8.2745449 
   24.271144    11.942781    8.2482632 
   24.273637    11.942558    8.2175775 
   24.275128    11.934146    8.1780156 
   24.284522    11.927755    8.1272422 
    24.28191    11.907001    8.0823184 
   24.281812    11.882491    8.0343686 
   24.286721    11.860392     7.971027 
   24.298748    11.852979    7.9075297 
   24.304779    11.825033    7.8409773 
   24.310377    11.785672    7.7789252 
   24.321553     11.75134    7.7119068 
   24.338605    11.716611    7.6504065 
   24.348729     11.69332    7.5925002 
   24.354985    11.666613    7.5617302 
   24.348451    11.644432    7.5537689 
    24.34939    11.604836    7.5419938 
    24.34249     11.55778    7.5139059 
   24.336514    11.505796    7.5046298 
   24.339461    11.463192    7.4911726 
   24.351634    11.448049    7.4809789 
   24.345858    11.441896    7.4812836 
   24.333239    11.436173    7.4953258 
   24.325875    11.428732     7.507686 
   24.308085    11.422364    7.5121357 
   24.281266    11.428893    7.5199145 
   24.256426    11.430166    7.5250979 
   24.236875    11.428109     7.528886 
   24.226191    11.403452    7.5368215 
   24.207257    11.378787    7.5368776 
   24.170046    11.369893    7.5247914 
   24.129606     11.36736    7.5051548 
   24.101145    11.385112    7.5098697 
   24.075631    11.391899    7.5167518 
   24.053756    11.390454    7.5276425 
    24.02281    11.392139     7.540469 
   23.975473    11.420768    7.5619346 
   23.925655    11.464149    7.5794416 
   23.885974    11.481958    7.5976199 
    23.87843    11.506788    7.6247608 
   23.876979    11.525906    7.6470954 
    23.88259    11.535363    7.6567409 
   23.897668     11.52809    7.6637897 
   23.906308    11.509493    7.6813675 
   23.917453     11.49763    7.7108385 
   23.927217    11.488421     7.741207 
   23.950365    11.463994    7.7687338 
   23.986789      11.4355    7.8041882 
   24.006421    11.412451    7.8286391 
   24.023899    11.384963    7.8496445 
   24.039774    11.373217    7.8688026 
   24.059034    11.379222    7.8860689 
   24.072836    11.397277    7.9047195 
   24.059404    11.412947    7.9281326 
   24.031835     11.42284    7.9521767 
   24.013859    11.425455    7.9782769 
   23.999667     11.43883    8.0022425 
   23.990436    11.437232    8.0117712 
   24.009221    11.436643    8.0135818 
   24.045943    11.426777    8.0213911 
   24.090251    11.424883    8.0585951 
    24.12836    11.427438    8.0855967 
   24.149505    11.444543    8.1138969 
   24.167633    11.454476    8.1231519 
   24.183517     11.45877    8.1306547 
   24.222827    11.464792     8.133337 
   24.268608    11.471873    8.1323023 
   24.298066    11.494661     8.148621 
   24.312427    11.515525    8.1681161 
   24.331334    11.527265    8.1887029 
   24.346039    11.536652    8.1892151 
   24.338044    11.550356    8.1952948 
   24.319222      11.5682    8.2080262 
   24.299996    11.567859     8.225784 
   24.267382    11.560161    8.2418816 
   24.242521    11.527994    8.2625288 
   24.219526    11.498971    8.2943163 
   24.205719    11.459043    8.3308058 
   24.182508    11.423808    8.3667028 
   24.145977    11.394385    8.3923649 
    24.11144    11.375091    8.4219083 
   24.092015     11.36544    8.4526865 
   24.091707    11.355844    8.4674409 
   24.068528    11.352953     8.479238 
   24.040876    11.349327    8.4818313 
   24.024088    11.341302    8.4668093 
   24.010491    11.321492    8.4563175 
   24.004018    11.300644    8.4651214 
   23.998403    11.285887    8.4789268 
   23.985121    11.291209    8.4976853 
   23.948523    11.315026    8.5209039 
   23.908391     11.33245    8.5406727 
   23.881854     11.32856    8.5520296 
   23.869319    11.332898    8.5707421 
   23.862383    11.351496    8.5781699 
   23.864777    11.366496    8.5832504 
   23.879565    11.366274    8.6074803 
   23.891985    11.360364    8.6254684 
    23.90485    11.327463    8.6522733 
   23.907172     11.29372    8.6629619 
   23.898704    11.275458    8.6661232 
   23.899259    11.266027    8.6787341 
   23.894769    11.262047    8.6935225 
   23.880237    11.247451    8.7128555 
   23.865253    11.231669    8.7233467 
   23.859042     11.19662    8.7480565 
   23.864584    11.151203    8.7781081 
   23.853766    11.110049    8.8139071 
   23.826385    11.077438    8.8513539 
   23.776424    11.057088    8.8808624 
   23.737337    11.029088    8.9088175 
   23.690806    11.004179    8.9433592 
   23.631438    10.979423    8.9739555 
   23.580249    10.959213    8.9940057 
   23.552393    10.948998    8.9998138 
    23.54779    10.950244     8.988445 
   23.525327    10.938403    8.9749195 
   23.517322    10.934056    8.9448198 
   23.525401    10.941344    8.9120516 
   23.554583    10.963399    8.8947289 
   23.607674    10.998006    8.8999485 
   23.656403    11.023733    8.9029219 
   23.690336    11.062756     8.887022 
   23.719077    11.091719    8.8691791 
   23.730667    11.120216     8.860864 
   23.754173      11.1354     8.868144 
   23.776524    11.149455    8.8710114 
   23.778236    11.172868    8.8802016 
   23.768276    11.209154    8.9021229 
    23.75735    11.244269    8.9330087 
   23.741037    11.279515    8.9840671 
   23.728077    11.324021    9.0271322 
   23.715593    11.369371    9.0598415 
   23.706979    11.412403    9.1091483 
   23.695264    11.460227    9.1662757 
   23.674698    11.501418     9.208486 
   23.685037    11.518933    9.2498692 
   23.702953    11.544236    9.2839584 
   23.724288    11.586598    9.2917896 
   23.750055    11.632643    9.2907582 
   23.765749    11.676899     9.310659 
   23.771167      11.7142    9.3476454 
   23.766072    11.753816    9.3777399 
   23.765399     11.76983    9.4014661 
   23.783426    11.777184    9.4080502 
   23.809045    11.775761    9.4295247 
   23.834981    11.777631    9.4584274 
   23.863221    11.771984     9.490483 
    23.88769    11.759234    9.5429931 
   23.921768    11.762102    9.5952237 
   23.966457    11.791552    9.6533364 
   24.005493    11.829416    9.7024071 
   24.012466    11.869357    9.7601155 
   24.013542    11.909573    9.8186573 
   24.032947     11.96378    9.8718923 
   24.060417    12.003052    9.9350646 
   24.088467    12.031553    9.9964061 
   24.125072    12.059483    10.044182 
    24.16151    12.095876    10.098594 
   24.184838    12.131554      10.1432 
    24.21815    12.167018    10.187193 
   24.234034    12.190519    10.234517 
   24.245365    12.191265    10.274482 
   24.243068    12.186377    10.319477 
   24.250712    12.206436    10.372923 
    24.27335    12.207641    10.415519 
   24.318077    12.190539    10.444814 
   24.366397     12.17125     10.48472 
   24.381274    12.148722    10.512512 
   24.394606    12.133802    10.549094 
   24.415989    12.137293    10.589121 
   24.453989    12.135226    10.627772 
   24.516491    12.121595    10.675521 
   24.582937    12.098298    10.718089 
   24.644441    12.089581    10.763083 
    24.72439    12.070833    10.807607 
   24.803262    12.054444    10.858588 
   24.872697    12.061548    10.914239 
    24.94011    12.069087    10.960391 
   24.986397    12.064947     11.00288 
   25.006126    12.054832    11.036124 
   25.018646      12.0429    11.065515 
   25.029398    12.030605     11.09092 
   25.050583    12.026089     11.10541 
   25.087362    12.030168    11.115488 
   25.125857    12.036573    11.116938 
   25.163006     12.03587    11.125218 
   25.190849    12.055764    11.126885 
   25.218166    12.099505    11.133405 
   25.260945    12.129817    11.157359 
   25.274415    12.164111    11.166271 
   25.287204    12.210542    11.185253 
   25.309597    12.255776    11.227516 
   25.328678    12.300865    11.275474 
   25.341135    12.353637    11.316087 
   25.358475    12.394916    11.350096 
   25.382938    12.422498    11.391712 
   25.406072    12.441979    11.429912 
   25.418989    12.462502    11.463974 
   25.423167    12.491185    11.511974 
   25.417484    12.533666    11.551824 
   25.413802     12.59489    11.592971 
   25.428296    12.656481    11.606563 
   25.456514    12.693769    11.613099 
   25.493677    12.721299    11.621069 
   25.529727    12.716137    11.638256 
   25.562419    12.695213    11.664499 
   25.604386    12.673028    11.684304 
   25.629221    12.652551    11.706916 
   25.631645    12.629226    11.762261 
   25.611268    12.608082    11.845975 
   25.562884    12.604706    11.926412 
   25.523384    12.619243    11.999714 
   25.485554    12.637506    12.069065 
   25.443082    12.657925    12.137609 
   25.399723    12.681341    12.220007 
   25.348831    12.698378     12.28958 
   25.311261     12.72524    12.347216 
   25.285363    12.759883    12.397335 
   25.279378    12.808137     12.44395 
   25.263397    12.851003    12.478038 
   25.214833    12.887489    12.512384 
    25.17408    12.912045    12.546002 
   25.147797    12.928529    12.573791 
   25.118514    12.951998    12.595667 
   25.088617    12.970185    12.621867 
   25.065095    12.970181    12.648904 
   25.052692    12.973586    12.663261 
    25.05643    12.960977    12.686249 
   25.065815    12.955237     12.70266 
   25.080579    12.928354    12.737369 
   25.082148    12.899087     12.76339 
   25.078722    12.889608    12.782968 
   25.086632    12.887807    12.806186 
   25.089208    12.885312    12.826387 
    25.10871    12.881378    12.840651 
   25.119546    12.880944    12.852031 
   25.115061    12.881325    12.845246 
   25.099547     12.88515    12.819671 
   25.095797    12.880757    12.811107 
   25.110626    12.887767     12.81336 
   25.125809     12.89744    12.832487 
    25.15261    12.907788    12.873075 
   25.190356    12.911365    12.919059 
   25.212708    12.930767    12.963499 
   25.227954     12.96486    12.994541 
   25.241575    12.998512     13.00615 
   25.267021    13.033756    13.028374 
   25.298291    13.050297      13.0539 
     25.3251    13.053937    13.088155 
   25.353312    13.042359    13.097364 
   25.374977    13.023913     13.11131 
   25.400328     12.99587    13.127513 
   25.440098    12.953012    13.145821 
   25.496424    12.925925    13.164509 
   25.553352    12.898636    13.168298 
    25.60693    12.877992    13.167248 
   25.662595    12.867928    13.166709 
   25.716281    12.860961    13.152698 
   25.786431    12.835935    13.138153 
   25.853444    12.817121    13.141421 
   25.910812    12.822416    13.140185 
    25.96174    12.822999     13.12692 
   26.023658    12.827389    13.129641 
   26.085644    12.842044    13.141654 
   26.143694    12.864034    13.137048 
   26.191829     12.88054    13.136609 
    26.23462    12.887147    13.129495 
   26.262192    12.921794    13.110429 
   26.277014    12.953367    13.097031 
   26.286216    12.965574    13.068765 
   26.298205    12.972208     13.04048 
    26.31496    12.979797    12.997304 
   26.332937    13.004158     12.95024 
   26.363784     13.04799    12.900006 
   26.408029    13.068841    12.862842 
    26.48426    13.080748     12.80723 
   26.545057    13.105954    12.740286 
   26.595895    13.148526     12.67472 
   26.635071    13.194642    12.610776 
   26.661381     13.25053    12.532629 
   26.693465    13.306374    12.447927 
   26.735843    13.353866    12.373691 
   26.781133    13.399657    12.315787 
   26.797399    13.432758    12.254152 
    26.79064    13.461783    12.192023 
   26.789455    13.496676    12.142414 
   26.778791    13.523558    12.083828 
   26.769976    13.546002    12.054322 
    26.74835    13.569714     12.02672 
   26.728569    13.592684    12.001127 
   26.713758    13.603482     11.96375 
   26.693956    13.606748    11.936658 
   26.660966    13.611911    11.929516 
   26.621915    13.601978    11.922372 
   26.586245    13.584973    11.921871 
   26.546597    13.581501    11.936816 
   26.505028    13.588633     11.95573 
   26.461608    13.621373    11.989749 
   26.421968     13.66694    12.019325 
   26.381254    13.699953    12.065951 
   26.340958    13.730375    12.111754 
   26.313348    13.765406    12.150997 
   26.292987     13.79298    12.177685 
   26.290752     13.83012    12.193264 
    26.29405    13.883898    12.209125 
   26.292546    13.966284    12.226431 
   26.284502    14.043325    12.239184 
   26.277703    14.126262    12.243835 
    26.28749     14.19238    12.234019 
   26.309212    14.266863    12.226865 
   26.320495     14.33539    12.218325 
   26.325348    14.397495    12.225535 
   26.323892     14.45482    12.204339 
   26.326015    14.508344    12.194404 
   26.322052    14.571046    12.165133 
   26.314323    14.641842    12.118895 
   26.319176    14.704948    12.068541 
   26.340476      14.7584    12.030481 
    26.35631    14.818004    11.992421 
   26.363892    14.860567    11.935072 
   26.386103    14.904572    11.896523 
   26.416364    14.944833    11.883712 
   26.436264    14.975323     11.87189 
   26.456426    14.988791    11.872679 
   26.470841    14.994234    11.876565 
   26.470111     15.01366    11.887644 
   26.465009    15.032934    11.904602 
   26.461096    15.047972    11.920784 
   26.439214     15.05919     11.94266 
   26.416318    15.057143     11.96488 
   26.397466    15.032715    11.979391 
   26.389828    14.993123    11.976027 
   26.373719    14.947505     11.96785 
   26.349754    14.896838    11.954401 
   26.319915    14.833515    11.934785 
   26.287398    14.772698    11.915187 
   26.237093    14.717094    11.902925 
   26.187176    14.676698    11.886966 
   26.130601     14.66947    11.859748 
    26.07734    14.676257    11.838026 
   26.035434    14.677581    11.823787 
   25.988621    14.682657    11.800397 
   25.959689    14.667497    11.781895 
    25.94741    14.660281    11.761291 
      25.926    14.656172    11.746415 
   25.903471    14.643007    11.730998 
   25.876828    14.616989    11.704437 
   25.828025    14.593737    11.679139 
   25.789878    14.578242    11.655804 
   25.767806    14.548919    11.626898 
   25.730487    14.515849    11.593764 
   25.696452    14.479626    11.580134 
   25.645017    14.456929    11.567377 
   25.581112    14.434567    11.550823 
   25.526017    14.436108    11.528623 
   25.475122    14.452976     11.49756 
   25.414084    14.478876    11.485666 
   25.365409    14.501515    11.467994 
   25.313669    14.518149    11.459998 
   25.258166     14.52939    11.466659 
   25.209425    14.552592    11.469572 
   25.167391    14.574444    11.478099 
   25.135703    14.607172    11.505395 
   25.127295    14.633814    11.540107 
    25.13916    14.669264    11.576567 
   25.135973    14.714794    11.604781 
   25.133144    14.773403    11.598686 
   25.151203    14.816029    11.593725 
   25.183761    14.859732    11.586379 
   25.202774    14.918106    11.588005 
    25.20237    14.953031    11.603021 
   25.213609    14.981874    11.613775 
   25.223884    15.010494    11.616568 
   25.209828    15.043933    11.602852 
   25.173459    15.074027    11.586656 
   25.124992    15.112389    11.587016 
   25.072961     15.12988    11.602122 
   25.036603    15.134815    11.620649 
   25.008508    15.149622    11.652548 
   24.979844     15.16641    11.681225 
   24.949924    15.184399    11.690623 
   24.914891    15.200201    11.700223 
   24.895247    15.213635    11.711534 
   24.891463    15.244266    11.734125 
   24.888354    15.287548    11.765018 
   24.899042    15.324384    11.804447 
   24.925566    15.348387    11.837773 
   24.958819    15.345061    11.868211 
   24.994262    15.343526    11.892747 
   25.038353    15.363562    11.910185 
   25.064211    15.393124    11.926251 
   25.058678    15.414753    11.958915 
   25.048993    15.427683    11.956533 
   25.075469    15.443245    11.937758 
   25.114763    15.480606    11.889706 
   25.157444    15.507643    11.849815 
   25.208753    15.519266    11.827477 
   25.266857    15.524863    11.809367 
   25.312027    15.516787    11.808684 
   25.365409    15.522863    11.817781 
   25.408972    15.534038    11.820282 
   25.442213    15.543413    11.826912 
   25.483917    15.553868    11.837666 
   25.530346    15.575889    11.847266 
   25.563846    15.593153    11.861321 
    25.58649    15.615218    11.886309 
   25.615472    15.664254    11.894879 
    25.63697    15.708223    11.902853 
   25.653402    15.754605     11.90293 
   25.676132     15.79834    11.914088 
   25.692428    15.835362    11.917407 
   25.713855     15.87116    11.909651 
   25.726167    15.914381    11.911471 
   25.738143    15.957317    11.922558 
   25.758487    15.983745    11.935896 
   25.796959    16.015462    11.956545 
    25.82372    16.058389    11.988173 
   25.848772    16.096552    12.002171 
   25.889806    16.144155    11.985375 
   25.925461    16.192913    11.962861 
   25.951167    16.244509     11.94327 
   25.976026    16.283656    11.927926 
   26.016274    16.299981    11.919768 
   26.047362    16.322932     11.94372 
   26.067329    16.336353     11.95943 
   26.095096    16.341463    11.959102 
   26.121086    16.367185    11.947745 
   26.146753    16.385241    11.950152 
   26.169638    16.390637    11.945584 
   26.206353    16.389394    11.949237 
   26.224656    16.366092    11.957426 
   26.228686    16.332536    11.966657 
   26.256373    16.285963    11.946477 
   26.281186     16.25323    11.932317 
   26.314849    16.225188    11.932449 
   26.338623    16.191121    11.938721 
   26.365359    16.157223    11.939393 
   26.389755    16.119009    11.927995 
   26.427348    16.106504    11.923865 
   26.468813     16.10917    11.920223 
   26.500976    16.085901    11.931463 
   26.513667    16.041959    11.945706 
   26.518528    15.991786    11.956545 
   26.513163    15.937837    11.975253 
   26.491843    15.886585    11.988507 
    26.47373    15.814096    11.989328 
   26.461449    15.756495    11.987491 
    26.46558    15.717237    11.982379 
   26.478627    15.695793    11.972945 
   26.493689    15.674266    11.964158 
   26.508645    15.669371    11.979259 
   26.524013      15.6622    12.015933 
   26.531974    15.663186    12.062484 
   26.526515     15.66057    12.105832 
   26.488903    15.658863    12.137291 
   26.434874    15.645891    12.160124 
   26.378776    15.650047     12.19145 
   26.331971    15.681884    12.201483 
   26.287103    15.709894    12.197919 
   26.249393    15.743702    12.196431 
   26.214149    15.787541    12.196919 
   26.184597    15.852717    12.189293 
   26.146244    15.916731    12.185104 
    26.09036     15.99451    12.182336 
   26.018856    16.081788    12.189356 
   25.955936    16.173379    12.207697 
   25.889007    16.266893    12.232475 
   25.838518    16.365935    12.254716 
   25.797871    16.447783    12.277599 
   25.746421     16.51918    12.294166 
   25.688236    16.579006    12.296514 
    25.64973    16.611814     12.31202 
   25.627458    16.634533    12.337023 
   25.607256     16.64281    12.370327 
   25.604778    16.634509    12.388942 
   25.606005    16.621628    12.396602 
   25.587238    16.606043    12.404915 
   25.568745    16.603847     12.40757 
   25.548536    16.612321    12.437346 
   25.551393     16.63035    12.463295 
   25.565497    16.637503    12.480477 
   25.574853    16.655146    12.494792 
   25.565291     16.66878    12.491028 
   25.564714    16.699581    12.502137 
   25.555169    16.753263      12.5149 
   25.540284    16.818112    12.513212 
   25.525285    16.886017     12.50621 
   25.516209    16.946396    12.486055 
    25.52298    17.014718    12.460987 
   25.537765    17.082795    12.436711 
   25.555246    17.141096    12.415064 
   25.572678    17.199836    12.392834 
   25.598023    17.263891    12.361378 
   25.621532    17.331312    12.329626 
   25.657649    17.393629    12.298923 
   25.684695    17.456066    12.269927 
   25.712749    17.512803    12.250141 
   25.744385    17.558866    12.234672 
   25.799843    17.618942    12.216785 
   25.849459    17.686177     12.18552 
    25.89121    17.745267    12.157713 
   25.928859    17.786832    12.153811 
   25.974859     17.82448    12.166788 
   26.017928    17.859625     12.19795 
   26.076551    17.898333    12.254685 
   26.130755    17.945786    12.295813 
   26.185351    17.984952    12.318014 
   26.248469    18.023106    12.336762 
   26.300045    18.054101    12.364731 
   26.343671    18.074864    12.392422 
   26.376775    18.100676    12.433434 
   26.384808    18.116789    12.470797 
   26.381828    18.145485    12.486051 
   26.365386    18.172834    12.498262 
   26.337241    18.215342    12.516675 
   26.319091    18.254704    12.543919 
   26.315301    18.280056    12.568052 
   26.330707    18.305878    12.598621 
   26.349953    18.317956    12.624096 
   26.373412    18.352819    12.635513 
   26.388893    18.392529     12.63004 
   26.408066    18.446879    12.623488 
   26.450202    18.500406    12.615813 
   26.490565     18.53683    12.602252 
   26.524357    18.557028    12.581064 
   26.562561    18.572471    12.564513 
   26.609808    18.575299    12.550566 
   26.675937    18.562709     12.55914 
   26.747188    18.516269    12.589876 
   26.814108    18.451224    12.606638 
   26.867726    18.370747    12.623571 
   26.920793    18.295482    12.642595 
   26.974905    18.232082    12.676422 
   27.040755    18.190461    12.701099 
   27.106027    18.159238    12.723568 
   27.174115    18.131445    12.762997 
    27.23933    18.109462    12.800518 
   27.298049    18.110866    12.861404 
   27.326023    18.115571    12.932704 
   27.365299    18.131682    12.979172 
   27.395714    18.154104    13.002011 
   27.403138    18.187408    13.017676 
   27.421708    18.222669    13.041921 
   27.441926    18.266894    13.066038 
   27.458364    18.312514    13.089453 
   27.467019    18.355521    13.121674 
   27.462492    18.392659    13.150148 
    27.46324     18.43513    13.180653 
   27.471488    18.460741    13.218992 
    27.49039    18.492312    13.273899 
   27.496556    18.510708    13.326348 
   27.474819    18.531422    13.350601 
   27.446415    18.544832    13.371086 
   27.427278    18.555959    13.403338 
   27.392267    18.567364    13.444294 
[...]
   26.174233    15.852445    5.7499595 
   26.156664    15.833238    5.8156389 
   26.135406    15.832673    5.8704645 
   26.118698    15.832236     5.925563 
   26.117163    15.794604    5.9541837 
   26.104246    15.744611    5.9639051 
   26.075852    15.693462     5.971153 
   26.057734    15.644185    5.9823189 
   26.053151    15.588452    5.9822288 
   26.043526    15.540854    5.9729848 
   26.012754    15.502602    5.9401923 
   25.973724    15.476935    5.9084424 
   25.953961     15.44935    5.8794798 
   25.917619    15.436826    5.8546587 
   25.877885    15.421523    5.8374092 
   25.848577    15.421818    5.8297274 
   25.828207    15.411687    5.8345254 
   25.818557    15.409599    5.8318281 
     25.8219    15.424118    5.8242286 
   25.825552    15.449393    5.8171844 
   25.826898    15.468343    5.8046935 
   25.833631    15.469939    5.7911395 
   25.843846    15.487047    5.7866964 
   25.840828    15.498606    5.7912377 
   25.858874    15.507645    5.8104585 
   25.891048    15.514965    5.8243264 
    25.92613    15.517712    5.8422344 
   25.941684    15.527348    5.8601279 
   25.946238    15.520966    5.8830016 
   25.936594     15.48155    5.8835817 
   25.926922    15.414105    5.8887448 
   25.927272    15.333076     5.893455 
   25.939571    15.242772    5.8951381 
   25.953061    15.143968    5.8952217 
   25.958489    15.059205    5.8915839 
   25.956622    14.985596    5.8888441 
   25.964391    14.910925    5.9034814 
   25.996085    14.815732    5.9038959 
   26.024997    14.711899    5.8872769 
   26.063755    14.627982    5.8698628 
   26.091352    14.561223    5.8572148 
   26.116295    14.491866    5.8598555 
   26.144074    14.430007     5.851968 
     26.1637    14.367695    5.8417716 
   26.190638    14.318315    5.8340344 
   26.232408     14.28846    5.8299302 
   26.271734    14.254168    5.8290162 
   26.297579    14.227132    5.8264586 
   26.329337    14.225218    5.8015369 
   26.371294     14.23391     5.758383 
   26.413694    14.253392    5.7086487 
   26.456261     14.27042     5.672949 
   26.487926    14.294457    5.6486645 
   26.517835    14.332116    5.6157933 
   26.542174     14.37839    5.5968085 
   26.559469    14.421006    5.5738302 
   26.572244    14.448998    5.5638386 
   26.591369    14.464511    5.5630762 
   26.601645    14.483944    5.5552859 
   26.618971     14.51546    5.5421102 
    26.64555    14.528614    5.5448706 
   26.680029    14.542045    5.5719985 
   26.704283    14.535577    5.5934764 
   26.722299    14.508591    5.6272142 
   26.746821    14.475937    5.6772224 
   26.766148    14.435572    5.7239409 
   26.790296    14.416169    5.7553478 
   26.820076    14.388754    5.7752027 
   26.865526    14.370114    5.8038677 
   26.912471    14.347616    5.8222451 
   26.969863    14.324472    5.8272682 
   27.034775    14.285487    5.8323801 
   27.086654    14.260767    5.8232722 
   27.108875    14.229928    5.8138345 
   27.124739    14.202832    5.8141922 
   27.152869    14.170075     5.831506 
   27.215005    14.147997    5.8630824 
   27.295761    14.127145    5.8791912 
   27.373216    14.106865     5.890156 
   27.433394    14.079723    5.9147794 
   27.477312     14.04672    5.9352259 
   27.518233    14.015292    5.9706548 
   27.520796    13.982412    6.0233125 
   27.522494    13.956553    6.0727948 
   27.522429    13.918594     6.109161 
   27.527968    13.890407    6.1454227 
   27.509119    13.872785    6.1618506 
   27.453247    13.863964    6.1702937 
   27.406371    13.857235    6.1736745 
   27.354463    13.859052    6.1792028 
   27.301684    13.865121    6.1928206 
    27.23911    13.869051    6.1955811 
   27.175354    13.858503    6.1775458 
    27.11173    13.838321    6.1546723 
    27.07726    13.845759    6.1411721 
   27.049857    13.849059    6.1332989 
   27.030246    13.866349     6.138219 
   27.026125     13.89967    6.1228958 
   27.038105    13.927859    6.1030423 
   27.054053    13.953893    6.0923569 
   27.068414    13.989772    6.0829171 
   27.066817    14.016696    6.0789164 
   27.068001    14.041226    6.0597501 
   27.066379    14.053004    6.0382361 
   27.059775    14.060257    6.0150869 
   27.065099    14.077786    5.9871347 
   27.080499    14.094895    5.9464983 
   27.103002    14.080948    5.9159654 
   27.131069    14.075786    5.9054226 
   27.155761    14.075147     5.921983 
   27.189925     14.08563    5.9399348 
   27.224155    14.086827    5.9591736 
   27.260211    14.102435    5.9817471 
   27.270027    14.122012    6.0084192 
   27.253592    14.118868    6.0311845 
   27.221202    14.109381    6.0386049 
   27.193138    14.102476    6.0348814 
   27.174909    14.096971    6.0242769 
    27.14192     14.10884    6.0268901 
    27.07713    14.123789    6.0411613 
   27.017475    14.138113    6.0545936 
   26.970014    14.141293    6.0761762 
   26.931483    14.158515    6.1053151 
    26.91001    14.161853    6.1283865 
    26.89525    14.156466    6.1494672 
   26.902384    14.153843    6.1753971 
   26.902429    14.157159    6.2011561 
   26.890667    14.167863    6.2179613 
   26.885364    14.194034    6.2283092 
   26.887076    14.224077    6.2452886 
   26.875729    14.251084    6.2560988 
   26.852641    14.281002     6.261345 
   26.838024    14.306252     6.259684 
   26.818177    14.335567    6.2736242 
   26.789411    14.369463    6.2918382 
   26.757435    14.401276    6.3078493 
   26.724082    14.437994    6.3124084 
   26.675027    14.468291    6.3093045 
   26.627729    14.480886    6.3053781 
   26.605915    14.494396     6.289126 
   26.595799     14.50751    6.2705494 
   26.574713    14.501639    6.2483066 
   26.553256    14.511816    6.2326428 
   26.537913    14.526197    6.2263212 
    26.53255    14.560535    6.2130748 
   26.532165    14.578242    6.1957394 
   26.525207    14.593486    6.1678313 
   26.519808    14.608594    6.1257185 
   26.512777    14.631583    6.0768725 
   26.493799    14.655865      6.04939 
   26.474112    14.667703    6.0322812 
   26.459679    14.669654     6.026455 
   26.446692    14.649824      5.99759 
   26.420648    14.610905    5.9674653 
   26.404346    14.570027    5.9310931 
   26.378605    14.525564    5.8954951 
   26.354328    14.509013    5.8825133 
   26.327155    14.513403    5.8610768 
   26.292309    14.514805    5.8349094 
   26.255646    14.508403     5.791899 
   26.234802    14.519912    5.7409372 
   26.230926    14.538298    5.6900042 
   26.239566    14.548693    5.6447036 
   26.247261    14.546939    5.6117641 
   26.260754    14.538582    5.5714307 
    26.27725    14.535659    5.5271602 
   26.283134    14.550604    5.4925088 
   26.304926    14.540287    5.4572284 
   26.327472    14.526063    5.4370572 
   26.342833    14.514638    5.4208371 
   26.360258    14.508646    5.4216157 
   26.379645    14.502869    5.4143217 
   26.399864    14.492027    5.3920328 
   26.425067    14.488871    5.3673735 
   26.461275    14.485219    5.3401881 
   26.506887    14.486761     5.300259 
   26.550172    14.486037    5.2402374 
   26.600567    14.478627    5.1813668 
   26.649553    14.467415    5.1386503 
    26.70824    14.469322    5.1087791 
    26.76149    14.463195    5.0823345 
   26.814648    14.446185    5.0758665 
   26.860663    14.452304    5.0866091 
   26.885026    14.465416    5.1053394 
    26.90031    14.463148    5.1347425 
   26.917256    14.455776    5.1629538 
    26.95537    14.448859    5.1780937 
   27.001749    14.444072    5.1874474 
   27.072956    14.441702    5.1980369 
   27.145049    14.434469    5.1942861 
   27.191332    14.425369    5.1744649 
    27.21447    14.431757    5.1594923 
   27.225163    14.434486    5.1526838 
   27.227918    14.457987    5.1510355 
   27.208389    14.504121    5.1454172 
   27.188784    14.541225    5.1630697 
   27.169929     14.57064     5.176389 
   27.131315    14.582673    5.1819059 
   27.091121    14.603442    5.2011562 
   27.053892    14.615031    5.2217205 
   27.038342    14.612096    5.2190053 
   27.027362    14.604979    5.2214028 
   27.000205    14.576526    5.2478227 
   26.970382    14.544734    5.2887537 
   26.943268    14.505773    5.3334505 
   26.915525     14.45133    5.3680483 
   26.910306    14.414628     5.390902 
    26.91403    14.383694    5.4223696 
   26.908471    14.354951    5.4342741 
    26.88248     14.34002    5.4398156 
   26.864342    14.331141    5.4436627 
   26.854125    14.329061    5.4410618 
   26.827192    14.310138    5.4359292 
   26.802936    14.285723    5.4242664 
      26.774    14.272248    5.4233439 
   26.756742    14.256081    5.4331861 
   26.747436    14.231104    5.4259647 
   26.733842    14.211434    5.4225403 
   26.712763    14.204686    5.4312125 
   26.674971    14.206093    5.4521869 
   26.642802    14.219058    5.4715923 
   26.617311    14.251876     5.480617 
   26.580551    14.297593    5.5016762 
   26.532243    14.362472    5.5223916 
    26.47973    14.427767     5.552741 
   26.431085    14.500058    5.5848993 
   26.395261    14.566665    5.6314754 
   26.352978    14.629676    5.6750615 
   26.304958    14.685959    5.7170928 
   26.262687    14.722497    5.7537473 
   26.224839     14.73653    5.7711422 
   26.192026    14.733173    5.7814957 
   26.162089    14.723214    5.8042953 
   26.112885     14.68987    5.8329752 
   26.046826     14.65598    5.8482264 
   25.978475    14.632506    5.8513853 
   25.913755    14.629168    5.8707721 
   25.863299    14.606811    5.9100045 
   25.812147    14.582927    5.9542719 
   25.755065    14.568601    5.9930974 
   25.695756    14.546663    6.0380744 
   25.634959    14.533833     6.086346 
   25.596397    14.521331    6.1265295 
   25.563858    14.486904    6.1568785 
   25.525741    14.429212    6.1919188 
   25.480332    14.378222    6.2082338 
   25.443452    14.343162    6.2089233 
   25.420249    14.306709    6.1847467 
   25.391773    14.282674    6.1586138 
   25.356204    14.282836    6.1430792 
   25.326666    14.304485    6.1343343 
   25.311655    14.344142    6.1262984 
   25.302186     14.39631    6.1136343 
   25.297671    14.454364    6.1245685 
   25.288286     14.51394    6.1362147 
   25.270619    14.575848     6.143476 
    25.25222    14.626189    6.1439902 
   25.221994    14.664747    6.1634696 
    25.18626    14.696953    6.1967866 
    25.13522    14.706948    6.2191047 
    25.07549    14.716427    6.2329958 
   25.017949    14.739072    6.2403023 
   24.971255    14.761618     6.249292 
   24.935664    14.769207     6.265262 
   24.896282    14.770355    6.2693986 
   24.866393    14.757466    6.2708754 
   24.849808    14.757239    6.2676674 
   24.831909    14.763929    6.2465692 
   24.811601    14.756932    6.2210273 
   24.774926    14.753099    6.2048171 
   24.720174    14.757605    6.1833912 
   24.673604    14.771449    6.1682699 
   24.634275     14.76804     6.146808 
   24.589196    14.767635    6.1230253 
   24.541638    14.752996    6.1108405 
   24.490006    14.729923     6.108207 
   24.452961    14.719405       6.1201 
   24.421435    14.726427    6.1206155 
   24.398088    14.734211    6.1131871 
   24.378691    14.731214    6.1008626 
   24.365474    14.721552    6.0943131 
   24.354922    14.730736     6.107957 
   24.344172    14.763477    6.1129774 
   24.327173    14.805777    6.1133791 
   24.307982    14.847748     6.141904 
    24.28721    14.895189    6.1732164 
   24.271223    14.953066    6.1937296 
   24.258271     15.00105    6.2324676 
   24.249621    15.048947     6.273014 
   24.233637    15.098704    6.3106092 
   24.207503    15.139097    6.3442354 
   24.177127    15.199704    6.3693652 
   24.152878    15.274275     6.417179 
   24.122952    15.345977    6.4654302 
   24.073101    15.423719     6.501895 
   24.024339    15.474764    6.5390705 
   23.985912    15.506167    6.5681291 
   23.946822    15.528235    6.5867132 
   23.900528    15.541631    6.6089464 
   23.864337    15.547977    6.6436094 
   23.818296    15.545461     6.682627 
   23.789936    15.547131    6.7360957 
   23.752118    15.562461    6.7779092 
   23.705371    15.591272     6.824255 
   23.660258     15.60849    6.8704695 
   23.619415    15.623325    6.9150155 
   23.568953    15.653379    6.9490397 
   23.522789    15.687076    6.9850267 
   23.492753    15.706593    7.0184634 
   23.457398    15.715242    7.0491647 
   23.422184    15.729744    7.0798031 
   23.389298    15.732791    7.1128104 
   23.362811    15.745053    7.1343257 
    23.32657    15.748429    7.1439831 
   23.291421    15.751991    7.1550911 
   23.263815    15.739217    7.1775081 
   23.246727    15.726996    7.2025815 
   23.255973    15.710391    7.2251846 
   23.286521    15.688715    7.2462332 
   23.333569    15.672768    7.2686053 
   23.390842    15.638102    7.2897514 
   23.438787    15.583858    7.3085399 
    23.47941    15.538711    7.3291193 
   23.511811     15.52271     7.345366 
   23.536949     15.52057    7.3517286 
    23.56066     15.52638    7.3485924 
   23.590752    15.538421    7.3467915 
   23.592618    15.559046    7.3493781 
   23.593908    15.590981    7.3548554 
   23.610415    15.599997    7.3692135 
   23.631158    15.617793    7.3916766 
   23.658056    15.652645    7.4083051 
   23.679152    15.694367    7.4133946 
   23.696803    15.719253    7.4010129 
   23.727616    15.748039    7.3857653 
   23.742483    15.792651     7.368704 
   23.755904    15.811958    7.3426858 
   23.750928     15.84574    7.3269799 
   23.739953    15.876743    7.3185899 
   23.735033    15.912716    7.3026237 
   23.733604    15.949746    7.2824145 
   23.724172    15.975772    7.2514511 
   23.722882    16.005163    7.2043467 
    23.70021    16.027827    7.1388994 
   23.665998    16.021352    7.0727945 
   23.656617    15.988002    7.0218782 
   23.651086    15.964932    6.9920337 
   23.668205    15.939998    6.9656961 
   23.689722    15.911248    6.9341132 
   23.727484    15.850332     6.899926 
   23.770741    15.786667    6.8687421 
   23.798671    15.722405    6.8268051 
   23.830307    15.658926    6.7901999 
   23.882313    15.598633      6.76009 
   23.948448    15.543667    6.7104184 
   24.021977    15.502606    6.6539153 
   24.109392    15.474132    6.5849691 
   24.203997    15.467957    6.5249966 
   24.280245    15.461202    6.4841972 
   24.346576    15.459794    6.4617322 
   24.402714    15.471426    6.4595523 
   24.447562    15.482283    6.4406237 
   24.472132    15.507141    6.4178983 
   24.481422    15.533577    6.3789998 
   24.491916    15.561331    6.3249062 
   24.510563    15.581045    6.2724924 
   24.534985    15.590953    6.2156752 
   24.544752    15.601686    6.1561011 
   24.546167    15.610649    6.1082346 
   24.554628    15.633181    6.0555897 
   24.568757    15.658534    5.9896216 
   24.582848    15.692683    5.9129935 
   24.614092    15.705012    5.8290596 
   24.651253    15.723969    5.7494023 
   24.688199    15.738817    5.6824608 
   24.707391    15.738363     5.618826 
   24.716434    15.742116     5.573989 
    24.70698    15.744354     5.538116 
    24.69256    15.741365    5.5133159 
   24.699259    15.731088    5.4943752 
   24.722279     15.71238    5.4865577 
   24.746929    15.674293    5.4771281 
   24.773973     15.62835    5.4633814 
   24.799826    15.579783    5.4501687 
   24.801966    15.546527    5.4290016 
   24.785335    15.503805    5.3997774 
    24.77109    15.453981      5.38315 
   24.751895      15.4044    5.3840903 
   24.711245    15.360775    5.3995107 
   24.663358    15.319612    5.4421102 
   24.607332    15.279098    5.4744236 
   24.581016    15.251946    5.5114852 
   24.575935    15.253054      5.53612 
   24.579317    15.266166    5.5387973 
   24.593087    15.280763    5.5569311 
   24.608031    15.289065    5.5706259 
    24.62655    15.276387     5.579397 
   24.627328    15.264658    5.5769108 
   24.618366    15.250898    5.5818639 
   24.605803    15.250266    5.5844706 
   24.597382    15.273342      5.58762 
   24.589215    15.321389    5.5933833 
   24.591183     15.38174    5.6040204 
   24.593385    15.436709    5.6191785 
   24.602074    15.486889    5.6371976 
   24.603711    15.537363    5.6556682 
   24.608567    15.577084    5.6646461 
   24.616406    15.637781    5.6532214 
   24.635811    15.681117    5.6235977 
   24.658442    15.714308    5.5924097 
   24.659789    15.751368    5.5606643 
   24.670078    15.791835    5.5312261 
   24.662016    15.802575    5.5222583 
   24.659717     15.78554    5.5237213 
   24.659776    15.764059    5.5272891 
   24.669786    15.730968    5.5164356 
   24.675893    15.715195    5.4893985 
    24.68225    15.706475    5.4501219 
   24.692839     15.70529    5.4120923 
   24.701038    15.696784    5.3849404 
    24.71036    15.675078    5.3606927 
   24.721706    15.660853    5.3377051 
   24.725294    15.662026    5.3027126 
   24.733316    15.667116    5.2744283 
   24.760007    15.666592    5.2583811 
   24.800852    15.651467    5.2425342 
   24.840501    15.629528    5.2349747 
   24.862227    15.626275    5.2256412 
   24.883571    15.629056    5.2151162 
   24.938468     15.62844    5.1928337 
   24.993987    15.612877    5.1703433 
   25.053451    15.586226    5.1543015 
   25.110514    15.548521    5.1281235 
   25.163921    15.522831    5.1000926 
   25.213336    15.490989    5.0662806 
    25.26725    15.461187    5.0473481 
   25.330444    15.447371    5.0419442 
   25.401952    15.440266    5.0329329 
   25.488951    15.434038    5.0327501 
   25.569839    15.432085    5.0567498 
   25.637627    15.417955    5.0829432 
   25.696673    15.415374    5.1051318 
   25.745813    15.420019    5.1172776 
   25.782912    15.406668    5.1356886 
     25.8175    15.399708    5.1474766 
   25.846039     15.40134    5.1311091 
   25.873449    15.392278    5.1010107 
   25.898345    15.392317    5.0799192 
   25.928541     15.39572    5.0645876 
   25.949577    15.397144    5.0516656 
   25.973878    15.398838     5.028799 
     26.0006     15.39756    4.9864507 
   26.041485     15.37525    4.9279663 
   26.078187    15.334661    4.8786189 
   26.102132    15.285636    4.8415038 
   26.123982     15.23107    4.8118388 
   26.150555    15.178823    4.7849266 
   26.154203    15.134916    4.7646102 
   26.157604    15.098279    4.7440472 
    26.16794     15.06718    4.7144142 
   26.172536    15.035184    4.6695793 
   26.185341    14.994562    4.6168155 
   26.172093    14.968078    4.5711903 
   26.150617    14.963484    4.5264048 
   26.150501    14.968086    4.4686064 
   26.142254    14.965284     4.417293 
    26.13015     14.97503     4.360815 
   26.127414    14.990073    4.2993259 
   26.116188    14.994798    4.2509521 
   26.088994    14.998071    4.2058927 
   26.064047    15.009225    4.1502414 
Loop time of 230.302 on 4 procs for 100000 steps with 8887 atoms

Performance: 375159.453 tau/day, 434.212 timesteps/s
78.3% CPU use with 4 MPI tasks x no OpenMP threads

MPI task timing breakdown:
Section |  min time  |  avg time  |  max time  |%varavg| %total
---------------------------------------------------------------
Pair    | 65.882     | 66.077     | 66.25      |   1.6 | 28.69
Bond    | 0.034207   | 0.045099   | 0.058974   |   4.9 |  0.02
Neigh   | 120.77     | 121.12     | 121.44     |   2.2 | 52.59
Comm    | 37.051     | 37.336     | 37.6       |   3.4 | 16.21
Output  | 0.31295    | 0.36102    | 0.47593    |  11.1 |  0.16
Modify  | 1.6933     | 1.7786     | 1.8604     |   4.9 |  0.77
Other   |            | 3.586      |            |       |  1.56

Nlocal:    2221.75 ave 2235 max 2207 min
Histogram: 1 0 0 0 1 0 1 0 0 1
Nghost:    2283.25 ave 2293 max 2275 min
Histogram: 1 0 1 0 0 1 0 0 0 1
Neighs:    46422.2 ave 46480 max 46358 min
Histogram: 1 0 0 1 0 0 0 1 0 1

Total # of neighbors = 185689
Ave neighs/atom = 20.8945
Ave special neighs/atom = 0.00540115
Neighbor list builds = 16120
Dangerous builds = 0


Total wall time: 0:04:00
