LAMMPS (31 Mar 2017)
# Sample LAMMPS script for modulating the probability that a hexamer passes
# a pore with pulling force on a LJ wall, under Langevin dynamics

# settings
# a 3D 60 box
variable      x equal 60
variable      y equal 30
variable      z equal 30
# temperature t = 1
variable      t equal 1
#variable      rho equal 0.7
neigh_modify  delay 0 check yes one 200000 page 2000000


# System setup

units         lj
dimension     3
atom_style    bond
bond_style    harmonic
pair_style    lj/cut 3
processors    1 4 6
read_data     data.polymer
  orthogonal box = (0 0 0) to (60 30 30)
  1 by 4 by 6 MPI processor grid
  reading atoms ...
  8887 atoms
  scanning bonds ...
  1 = max bonds/atom
  reading bonds ...
  9 bonds
  2 = max # of 1-2 neighbors
  2 = max # of 1-3 neighbors
  4 = max # of 1-4 neighbors
  6 = max # of special neighbors

# LJ pairs

# lattice       fcc ${rho}
# region        simbox block 0 $x 0 $y 0 $z
#create_box    1 simbox
region        void cylinder x 15 15 2 29 31
#region        wall block 29 31 0 30 0 30



#create_atoms  3 region wall
#delete_atoms  region void
pair_coeff    1 2 2.5 1
pair_coeff    1 3 2.5 1 1.12
pair_coeff    2 3 2.5 1 1.12

velocity      all create $t 97287
velocity      all create 1 97287


# Read bond/position info
group         polymer type 1 2
10 atoms in group polymer
group         first type 1
1 atoms in group first
region        box block 0 $x 0 $y 0 $z
region        box block 0 60 0 $y 0 $z
region        box block 0 60 0 30 0 $z
region        box block 0 60 0 30 0 30
region        spherein sphere 29 15 15 2
region        boxin block 27 29 13 17 13 17
region        hemiin intersect 2 boxin spherein
region        print block 29 31 12 18 12 18
group         print region print
300 atoms in group print
#region        sphereout sphere 31 15 15 2
#region        boxout block 31 33 13 17 13 17
#region        hemiout intersect 2 boxout sphereout


# Create forces
#variable      ftotal equal fcm(polymer,x)
fix           1 polymer nve
fix           2 polymer langevin $t $t 1 1209
fix           2 polymer langevin 1 $t 1 1209
fix           2 polymer langevin 1 1 1 1209
timestep      0.01
# equilibration run
thermo        1000
compute       com polymer com
thermo_style custom c_com[1] c_com[2] c_com[3]
fix           3 polymer spring tether 1 25.4 NULL NULL 0
run           5000
Neighbor list info ...
  update every 1 steps, delay 0 steps, check yes
  max neighbors/atom: 200000, page size: 2000000
  master list distance cutoff = 3.3
  ghost atom cutoff = 3.3
  binsize = 1.65, bins = 37 19 19
  1 neighbor lists, perpetual/occasional/extra = 1 0 0
  (1) pair lj/cut, perpetual
      attributes: half, newton on
      pair build: half/bin/newton
      stencil: half/bin/3d/newton
      bin: standard
Per MPI rank memory allocation (min/avg/max) = 11.37 | 11.38 | 11.49 Mbytes
c_com[1] c_com[2] c_com[3] 
        17.5           15           15 
   21.911715    14.131519    14.752076 
    24.26244    15.110686    15.650653 
   26.133766     16.80813     14.77233 
     25.0526    17.146886    15.629473 
   25.257267    18.334134    16.752964 
Loop time of 3.14968 on 24 procs for 5000 steps with 8887 atoms

Performance: 1371566.184 tau/day, 1587.461 timesteps/s
57.2% CPU use with 24 MPI tasks x no OpenMP threads

MPI task timing breakdown:
Section |  min time  |  avg time  |  max time  |%varavg| %total
---------------------------------------------------------------
Pair    | 0.42678    | 0.48327    | 0.51441    |   3.2 | 15.34
Bond    | 0.00059843 | 0.00081217 | 0.0013266  |   0.0 |  0.03
Neigh   | 1.0887     | 1.2642     | 1.3281     |   5.4 | 40.14
Comm    | 0.91354    | 1.116      | 1.3411     |   9.6 | 35.43
Output  | 0.00012183 | 0.00013915 | 0.00018287 |   0.0 |  0.00
Modify  | 0.11347    | 0.19634    | 0.36722    |  16.0 |  6.23
Other   |            | 0.08891    |            |       |  2.82

Nlocal:    370.292 ave 375 max 342 min
Histogram: 3 0 0 1 0 0 0 0 0 20
Nghost:    1220.17 ave 1236 max 1137 min
Histogram: 1 3 0 0 0 0 0 0 0 20
Neighs:    7737.04 ave 7984 max 6870 min
Histogram: 2 0 2 0 0 0 0 0 10 10

Total # of neighbors = 185689
Ave neighs/atom = 20.8945
Ave special neighs/atom = 0.00540115
Neighbor list builds = 811
Dangerous builds = 0
unfix         3
reset_timestep 0
fix 3 polymer smoothforce 29 31 0.15 1 3
change_box    all boundary f p p
fix 4 polymer wall/reflect xlo 21.5 xhi 39.5
thermo        10


run 10
Per MPI rank memory allocation (min/avg/max) = 11.37 | 11.39 | 11.48 Mbytes
c_com[1] c_com[2] c_com[3] 
   25.257267    18.334134    16.752964 
   25.255164    18.363436    16.737999 
Loop time of 0.0051586 on 24 procs for 10 steps with 8887 atoms

Performance: 1674871.991 tau/day, 1938.509 timesteps/s
52.5% CPU use with 24 MPI tasks x no OpenMP threads

MPI task timing breakdown:
Section |  min time  |  avg time  |  max time  |%varavg| %total
---------------------------------------------------------------
Pair    | 0.00086188 | 0.00096424 | 0.0010271  |   0.0 | 18.69
Bond    | 0          | 1.9372e-06 | 5.0068e-06 |   0.0 |  0.04
Neigh   | 0.00078893 | 0.0014207  | 0.001735   |   0.9 | 27.54
Comm    | 0.0016844  | 0.002283   | 0.0031023  |   0.8 | 44.26
Output  | 2.2173e-05 | 4.8657e-05 | 7.8917e-05 |   0.0 |  0.94
Modify  | 2.1219e-05 | 2.5332e-05 | 4.53e-05   |   0.0 |  0.49
Other   |            | 0.0004148  |            |       |  8.04

Nlocal:    370.292 ave 375 max 342 min
Histogram: 3 0 0 1 0 0 0 0 0 20
Nghost:    1220.38 ave 1237 max 1138 min
Histogram: 1 3 0 0 0 0 0 0 0 20
Neighs:    7737.04 ave 7984 max 6870 min
Histogram: 2 0 2 0 0 0 0 0 10 10

Total # of neighbors = 185689
Ave neighs/atom = 20.8945
Ave special neighs/atom = 0.00540115
Neighbor list builds = 1
Dangerous builds = 0
run 10
Per MPI rank memory allocation (min/avg/max) = 11.37 | 11.39 | 11.48 Mbytes
c_com[1] c_com[2] c_com[3] 
   25.255164    18.363436    16.737999 
   25.255055    18.388118    16.722774 
Loop time of 0.00514 on 24 procs for 10 steps with 8887 atoms

Performance: 1680934.961 tau/day, 1945.527 timesteps/s
59.2% CPU use with 24 MPI tasks x no OpenMP threads

MPI task timing breakdown:
Section |  min time  |  avg time  |  max time  |%varavg| %total
---------------------------------------------------------------
Pair    | 0.00085974 | 0.00096256 | 0.0010281  |   0.0 | 18.73
Bond    | 0          | 1.7881e-06 | 4.0531e-06 |   0.0 |  0.03
Neigh   | 0.00078702 | 0.0014554  | 0.0017221  |   0.8 | 28.31
Comm    | 0.0018284  | 0.0022565  | 0.0030837  |   0.8 | 43.90
Output  | 2.3127e-05 | 4.8876e-05 | 7.8201e-05 |   0.0 |  0.95
Modify  | 2.1696e-05 | 2.5034e-05 | 4.3392e-05 |   0.0 |  0.49
Other   |            | 0.0003899  |            |       |  7.58

Nlocal:    370.292 ave 375 max 342 min
Histogram: 3 0 0 1 0 0 0 0 0 20
Nghost:    1220.08 ave 1236 max 1136 min
Histogram: 1 3 0 0 0 0 0 0 0 20
Neighs:    7737.04 ave 7984 max 6870 min
Histogram: 2 0 2 0 0 0 0 0 10 10

Total # of neighbors = 185689
Ave neighs/atom = 20.8945
Ave special neighs/atom = 0.00540115
Neighbor list builds = 1
Dangerous builds = 0
run 10
Per MPI rank memory allocation (min/avg/max) = 11.37 | 11.39 | 11.48 Mbytes
c_com[1] c_com[2] c_com[3] 
   25.255055    18.388118    16.722774 
   25.271628     18.40517     16.69541 
Loop time of 0.00516657 on 24 procs for 10 steps with 8887 atoms

Performance: 1672289.241 tau/day, 1935.520 timesteps/s
62.1% CPU use with 24 MPI tasks x no OpenMP threads

MPI task timing breakdown:
Section |  min time  |  avg time  |  max time  |%varavg| %total
---------------------------------------------------------------
Pair    | 0.00085759 | 0.00096495 | 0.0010304  |   0.0 | 18.68
Bond    | 0          | 1.5795e-06 | 5.2452e-06 |   0.0 |  0.03
Neigh   | 0.00091004 | 0.0015493  | 0.0017371  |   0.5 | 29.99
Comm    | 0.0017502  | 0.0021486  | 0.0029342  |   0.5 | 41.59
Output  | 2.1935e-05 | 4.7306e-05 | 7.391e-05  |   0.0 |  0.92
Modify  | 2.265e-05  | 2.5421e-05 | 4.22e-05   |   0.0 |  0.49
Other   |            | 0.0004294  |            |       |  8.31

Nlocal:    370.292 ave 375 max 342 min
Histogram: 3 0 0 1 0 0 0 0 0 20
Nghost:    1220 ave 1236 max 1135 min
Histogram: 2 2 0 0 0 0 0 0 0 20
Neighs:    7737.04 ave 7984 max 6870 min
Histogram: 2 0 2 0 0 0 0 0 10 10

Total # of neighbors = 185689
Ave neighs/atom = 20.8945
Ave special neighs/atom = 0.00540115
Neighbor list builds = 1
Dangerous builds = 0
run 10
Per MPI rank memory allocation (min/avg/max) = 11.37 | 11.39 | 11.48 Mbytes
c_com[1] c_com[2] c_com[3] 
   25.271628     18.40517     16.69541 
   25.303073    18.411222    16.663711 
Loop time of 0.00516099 on 24 procs for 10 steps with 8887 atoms

Performance: 1674098.262 tau/day, 1937.614 timesteps/s
51.7% CPU use with 24 MPI tasks x no OpenMP threads

MPI task timing breakdown:
Section |  min time  |  avg time  |  max time  |%varavg| %total
---------------------------------------------------------------
Pair    | 0.0008595  | 0.00096257 | 0.0010231  |   0.0 | 18.65
Bond    | 0          | 1.3312e-06 | 4.0531e-06 |   0.0 |  0.03
Neigh   | 0.00079107 | 0.0014198  | 0.001729   |   0.9 | 27.51
Comm    | 0.0018721  | 0.0022956  | 0.0031707  |   0.8 | 44.48
Output  | 3.0994e-05 | 5.4061e-05 | 8.4162e-05 |   0.0 |  1.05
Modify  | 2.0266e-05 | 2.5709e-05 | 4.4823e-05 |   0.0 |  0.50
Other   |            | 0.0004019  |            |       |  7.79

Nlocal:    370.292 ave 375 max 342 min
Histogram: 3 0 0 1 0 0 0 0 0 20
Nghost:    1219.96 ave 1236 max 1135 min
Histogram: 2 2 0 0 0 0 0 0 0 20
Neighs:    7737.04 ave 7984 max 6870 min
Histogram: 2 0 2 0 0 0 0 0 10 10

Total # of neighbors = 185689
Ave neighs/atom = 20.8945
Ave special neighs/atom = 0.00540115
Neighbor list builds = 1
Dangerous builds = 0
run 10
Per MPI rank memory allocation (min/avg/max) = 11.37 | 11.39 | 11.48 Mbytes
c_com[1] c_com[2] c_com[3] 
   25.303073    18.411222    16.663711 
     25.3368    18.422798    16.621512 
Loop time of 0.0051145 on 24 procs for 10 steps with 8887 atoms

Performance: 1689316.096 tau/day, 1955.227 timesteps/s
59.5% CPU use with 24 MPI tasks x no OpenMP threads

MPI task timing breakdown:
Section |  min time  |  avg time  |  max time  |%varavg| %total
---------------------------------------------------------------
Pair    | 0.00086188 | 0.00096599 | 0.0010312  |   0.0 | 18.89
Bond    | 0          | 1.5299e-06 | 6.6757e-06 |   0.0 |  0.03
Neigh   | 0.00079203 | 0.0014214  | 0.001729   |   0.9 | 27.79
Comm    | 0.0018849  | 0.002272   | 0.0031142  |   0.8 | 44.42
Output  | 2.408e-05  | 4.6819e-05 | 6.6042e-05 |   0.0 |  0.92
Modify  | 2.0504e-05 | 2.5153e-05 | 4.22e-05   |   0.0 |  0.49
Other   |            | 0.0003816  |            |       |  7.46

Nlocal:    370.292 ave 375 max 342 min
Histogram: 3 0 0 1 0 0 0 0 0 20
Nghost:    1219.88 ave 1236 max 1134 min
Histogram: 2 1 1 0 0 0 0 0 0 20
Neighs:    7737.04 ave 7984 max 6870 min
Histogram: 2 0 2 0 0 0 0 0 10 10

Total # of neighbors = 185689
Ave neighs/atom = 20.8945
Ave special neighs/atom = 0.00540115
Neighbor list builds = 1
Dangerous builds = 0
run 10
Per MPI rank memory allocation (min/avg/max) = 11.37 | 11.39 | 11.48 Mbytes
c_com[1] c_com[2] c_com[3] 
     25.3368    18.422798    16.621512 
   25.358907    18.443366    16.574242 
Loop time of 0.00525689 on 24 procs for 10 steps with 8887 atoms

Performance: 1643556.921 tau/day, 1902.265 timesteps/s
58.6% CPU use with 24 MPI tasks x no OpenMP threads

MPI task timing breakdown:
Section |  min time  |  avg time  |  max time  |%varavg| %total
---------------------------------------------------------------
Pair    | 0.00086069 | 0.00096357 | 0.0010231  |   0.0 | 18.33
Bond    | 0          | 1.6888e-06 | 3.8147e-06 |   0.0 |  0.03
Neigh   | 0.00082493 | 0.0015298  | 0.001816   |   0.9 | 29.10
Comm    | 0.0018783  | 0.0023267  | 0.0032563  |   0.9 | 44.26
Output  | 2.0981e-05 | 4.7167e-05 | 7.2002e-05 |   0.0 |  0.90
Modify  | 2.0742e-05 | 2.556e-05  | 4.0054e-05 |   0.0 |  0.49
Other   |            | 0.0003624  |            |       |  6.89

Nlocal:    370.292 ave 375 max 342 min
Histogram: 3 0 0 1 0 0 0 0 0 20
Nghost:    1219.88 ave 1236 max 1134 min
Histogram: 2 1 1 0 0 0 0 0 0 20
Neighs:    7737.04 ave 7984 max 6870 min
Histogram: 2 0 2 0 0 0 0 0 10 10

Total # of neighbors = 185689
Ave neighs/atom = 20.8945
Ave special neighs/atom = 0.00540115
Neighbor list builds = 1
Dangerous builds = 0
run 10
Per MPI rank memory allocation (min/avg/max) = 11.37 | 11.39 | 11.48 Mbytes
c_com[1] c_com[2] c_com[3] 
   25.358907    18.443366    16.574242 
   25.361721    18.466447    16.527114 
Loop time of 0.00508822 on 24 procs for 10 steps with 8887 atoms

Performance: 1698039.773 tau/day, 1965.324 timesteps/s
52.4% CPU use with 24 MPI tasks x no OpenMP threads

MPI task timing breakdown:
Section |  min time  |  avg time  |  max time  |%varavg| %total
---------------------------------------------------------------
Pair    | 0.00086498 | 0.0009626  | 0.0010254  |   0.0 | 18.92
Bond    | 0          | 1.4206e-06 | 4.0531e-06 |   0.0 |  0.03
Neigh   | 0.00079203 | 0.001451   | 0.0017171  |   0.8 | 28.52
Comm    | 0.0018508  | 0.0022496  | 0.0030537  |   0.8 | 44.21
Output  | 2.2173e-05 | 4.6402e-05 | 7.2956e-05 |   0.0 |  0.91
Modify  | 2.1696e-05 | 2.5143e-05 | 3.7193e-05 |   0.0 |  0.49
Other   |            | 0.0003521  |            |       |  6.92

Nlocal:    370.292 ave 375 max 342 min
Histogram: 3 0 0 1 0 0 0 0 0 20
Nghost:    1219.88 ave 1236 max 1134 min
Histogram: 2 1 1 0 0 0 0 0 0 20
Neighs:    7737.04 ave 7984 max 6870 min
Histogram: 2 0 2 0 0 0 0 0 10 10

Total # of neighbors = 185689
Ave neighs/atom = 20.8945
Ave special neighs/atom = 0.00540115
Neighbor list builds = 1
Dangerous builds = 0
run 10
Per MPI rank memory allocation (min/avg/max) = 11.37 | 11.39 | 11.48 Mbytes
c_com[1] c_com[2] c_com[3] 
   25.361721    18.466447    16.527114 
   25.367855    18.493982     16.46879 
Loop time of 0.00513109 on 24 procs for 10 steps with 8887 atoms

Performance: 1683854.155 tau/day, 1948.905 timesteps/s
56.0% CPU use with 24 MPI tasks x no OpenMP threads

MPI task timing breakdown:
Section |  min time  |  avg time  |  max time  |%varavg| %total
---------------------------------------------------------------
Pair    | 0.00085974 | 0.00096409 | 0.0010231  |   0.0 | 18.79
Bond    | 0          | 1.4901e-06 | 4.0531e-06 |   0.0 |  0.03
Neigh   | 0.00078607 | 0.001485   | 0.001729   |   0.7 | 28.94
Comm    | 0.0017693  | 0.0021827  | 0.0030899  |   0.8 | 42.54
Output  | 2.5988e-05 | 4.5995e-05 | 7.5102e-05 |   0.0 |  0.90
Modify  | 2.1458e-05 | 2.5223e-05 | 4.1962e-05 |   0.0 |  0.49
Other   |            | 0.0004266  |            |       |  8.31

Nlocal:    370.292 ave 375 max 342 min
Histogram: 3 0 0 1 0 0 0 0 0 20
Nghost:    1219.83 ave 1235 max 1134 min
Histogram: 2 1 1 0 0 0 0 0 0 20
Neighs:    7737.04 ave 7984 max 6870 min
Histogram: 2 0 2 0 0 0 0 0 10 10

Total # of neighbors = 185689
Ave neighs/atom = 20.8945
Ave special neighs/atom = 0.00540115
Neighbor list builds = 1
Dangerous builds = 0
run 10
Per MPI rank memory allocation (min/avg/max) = 11.37 | 11.39 | 11.48 Mbytes
c_com[1] c_com[2] c_com[3] 
   25.367855    18.493982     16.46879 
   25.379804    18.526672    16.406812 
Loop time of 0.00511332 on 24 procs for 10 steps with 8887 atoms

Performance: 1689703.370 tau/day, 1955.675 timesteps/s
66.0% CPU use with 24 MPI tasks x no OpenMP threads

MPI task timing breakdown:
Section |  min time  |  avg time  |  max time  |%varavg| %total
---------------------------------------------------------------
Pair    | 0.00086999 | 0.00096412 | 0.0010252  |   0.0 | 18.85
Bond    | 0          | 1.1126e-06 | 3.0994e-06 |   0.0 |  0.02
Neigh   | 0.00078487 | 0.0014903  | 0.0017309  |   0.8 | 29.15
Comm    | 0.0018761  | 0.0022142  | 0.0031693  |   0.8 | 43.30
Output  | 2.2888e-05 | 4.4286e-05 | 6.9141e-05 |   0.0 |  0.87
Modify  | 2.1458e-05 | 2.5322e-05 | 4.4107e-05 |   0.0 |  0.50
Other   |            | 0.000374   |            |       |  7.31

Nlocal:    370.292 ave 375 max 342 min
Histogram: 3 0 0 1 0 0 0 0 0 20
Nghost:    1219.83 ave 1235 max 1134 min
Histogram: 2 1 1 0 0 0 0 0 0 20
Neighs:    7737.04 ave 7984 max 6870 min
Histogram: 2 0 2 0 0 0 0 0 10 10

Total # of neighbors = 185689
Ave neighs/atom = 20.8945
Ave special neighs/atom = 0.00540115
Neighbor list builds = 1
Dangerous builds = 0
run 10
Per MPI rank memory allocation (min/avg/max) = 11.37 | 11.39 | 11.48 Mbytes
c_com[1] c_com[2] c_com[3] 
   25.379804    18.526672    16.406812 
   25.403233    18.557865    16.344363 
Loop time of 0.00514453 on 24 procs for 10 steps with 8887 atoms

Performance: 1679454.834 tau/day, 1943.813 timesteps/s
63.2% CPU use with 24 MPI tasks x no OpenMP threads

MPI task timing breakdown:
Section |  min time  |  avg time  |  max time  |%varavg| %total
---------------------------------------------------------------
Pair    | 0.00086141 | 0.00096491 | 0.0010316  |   0.0 | 18.76
Bond    | 0          | 1.3808e-06 | 3.0994e-06 |   0.0 |  0.03
Neigh   | 0.00078702 | 0.0014276  | 0.0017381  |   0.9 | 27.75
Comm    | 0.0012877  | 0.0021946  | 0.0030928  |   1.0 | 42.66
Output  | 2.408e-05  | 7.0532e-05 | 0.00018597 |   0.0 |  1.37
Modify  | 2.0504e-05 | 2.4656e-05 | 4.3154e-05 |   0.0 |  0.48
Other   |            | 0.0004608  |            |       |  8.96

Nlocal:    370.292 ave 375 max 342 min
Histogram: 3 0 0 1 0 0 0 0 0 20
Nghost:    1219.92 ave 1235 max 1135 min
Histogram: 1 2 1 0 0 0 0 0 0 20
Neighs:    7737.04 ave 7984 max 6870 min
Histogram: 2 0 2 0 0 0 0 0 10 10

Total # of neighbors = 185689
Ave neighs/atom = 20.8945
Ave special neighs/atom = 0.00540115
Neighbor list builds = 1
Dangerous builds = 0
run 10
Per MPI rank memory allocation (min/avg/max) = 11.37 | 11.39 | 11.48 Mbytes
c_com[1] c_com[2] c_com[3] 
   25.403233    18.557865    16.344363 
   25.421233    18.588423    16.299997 
Loop time of 0.00512598 on 24 procs for 10 steps with 8887 atoms

Performance: 1685531.489 tau/day, 1950.847 timesteps/s
61.8% CPU use with 24 MPI tasks x no OpenMP threads

MPI task timing breakdown:
Section |  min time  |  avg time  |  max time  |%varavg| %total
---------------------------------------------------------------
Pair    | 0.00086665 | 0.00096703 | 0.0010331  |   0.0 | 18.87
Bond    | 0          | 1.5497e-06 | 3.8147e-06 |   0.0 |  0.03
Neigh   | 0.00078106 | 0.0015142  | 0.0017221  |   0.6 | 29.54
Comm    | 0.00076342 | 0.0019975  | 0.0030909  |   1.3 | 38.97
Output  | 2.1935e-05 | 6.8635e-05 | 0.00018191 |   0.0 |  1.34
Modify  | 2.0742e-05 | 2.558e-05  | 4.6253e-05 |   0.0 |  0.50
Other   |            | 0.0005515  |            |       | 10.76

Nlocal:    370.292 ave 375 max 342 min
Histogram: 3 0 0 1 0 0 0 0 0 20
Nghost:    1219.83 ave 1235 max 1134 min
Histogram: 2 1 1 0 0 0 0 0 0 20
Neighs:    7737.04 ave 7984 max 6870 min
Histogram: 2 0 2 0 0 0 0 0 10 10

Total # of neighbors = 185689
Ave neighs/atom = 20.8945
Ave special neighs/atom = 0.00540115
Neighbor list builds = 1
Dangerous builds = 0
run 10
Per MPI rank memory allocation (min/avg/max) = 11.37 | 11.39 | 11.48 Mbytes
c_com[1] c_com[2] c_com[3] 
   25.421233    18.588423    16.299997 
   25.420596    18.642466    16.254067 
Loop time of 0.00517348 on 24 procs for 10 steps with 8887 atoms

Performance: 1670054.298 tau/day, 1932.933 timesteps/s
58.8% CPU use with 24 MPI tasks x no OpenMP threads

MPI task timing breakdown:
Section |  min time  |  avg time  |  max time  |%varavg| %total
---------------------------------------------------------------
Pair    | 0.00085926 | 0.00096362 | 0.0010302  |   0.0 | 18.63
Bond    | 0          | 2.3246e-06 | 5.9605e-06 |   0.0 |  0.04
Neigh   | 0.00082779 | 0.0015318  | 0.001776   |   0.8 | 29.61
Comm    | 0.00097108 | 0.0020629  | 0.0030487  |   1.2 | 39.87
Output  | 2.2888e-05 | 6.9608e-05 | 0.00018883 |   0.0 |  1.35
Modify  | 2.0981e-05 | 2.5074e-05 | 4.7207e-05 |   0.0 |  0.48
Other   |            | 0.0005181  |            |       | 10.01

Nlocal:    370.292 ave 375 max 342 min
Histogram: 3 0 0 1 0 0 0 0 0 20
Nghost:    1219.92 ave 1235 max 1135 min
Histogram: 1 2 1 0 0 0 0 0 0 20
Neighs:    7737.04 ave 7984 max 6870 min
Histogram: 2 0 2 0 0 0 0 0 10 10

Total # of neighbors = 185689
Ave neighs/atom = 20.8945
Ave special neighs/atom = 0.00540115
Neighbor list builds = 1
Dangerous builds = 0
run 10
Per MPI rank memory allocation (min/avg/max) = 11.37 | 11.39 | 11.48 Mbytes
c_com[1] c_com[2] c_com[3] 
   25.420596    18.642466    16.254067 
   25.402068    18.679724    16.210878 
Loop time of 0.00518334 on 24 procs for 10 steps with 8887 atoms

Performance: 1666879.168 tau/day, 1929.258 timesteps/s
58.7% CPU use with 24 MPI tasks x no OpenMP threads

MPI task timing breakdown:
Section |  min time  |  avg time  |  max time  |%varavg| %total
---------------------------------------------------------------
Pair    | 0.00086069 | 0.00096323 | 0.0010228  |   0.0 | 18.58
Bond    | 0          | 1.3908e-06 | 5.9605e-06 |   0.0 |  0.03
Neigh   | 0.00083494 | 0.0015304  | 0.001771   |   0.8 | 29.52
Comm    | 0.00087452 | 0.0020686  | 0.0030563  |   1.3 | 39.91
Output  | 2.1935e-05 | 7.1237e-05 | 0.00018811 |   0.0 |  1.37
Modify  | 2.1696e-05 | 2.6147e-05 | 5.0306e-05 |   0.0 |  0.50
Other   |            | 0.0005223  |            |       | 10.08

Nlocal:    370.292 ave 375 max 342 min
Histogram: 3 0 0 1 0 0 0 0 0 20
Nghost:    1219.83 ave 1235 max 1134 min
Histogram: 2 1 1 0 0 0 0 0 0 20
Neighs:    7737.04 ave 7984 max 6870 min
Histogram: 2 0 2 0 0 0 0 0 10 10

Total # of neighbors = 185689
Ave neighs/atom = 20.8945
Ave special neighs/atom = 0.00540115
Neighbor list builds = 1
Dangerous builds = 0
run 10
Per MPI rank memory allocation (min/avg/max) = 11.37 | 11.39 | 11.48 Mbytes
c_com[1] c_com[2] c_com[3] 
   25.402068    18.679724    16.210878 
   25.388128    18.718601    16.175905 
Loop time of 0.00516417 on 24 procs for 10 steps with 8887 atoms

Performance: 1673067.735 tau/day, 1936.421 timesteps/s
57.3% CPU use with 24 MPI tasks x no OpenMP threads

MPI task timing breakdown:
Section |  min time  |  avg time  |  max time  |%varavg| %total
---------------------------------------------------------------
Pair    | 0.00086212 | 0.00096252 | 0.0010297  |   0.0 | 18.64
Bond    | 0          | 1.7981e-06 | 4.7684e-06 |   0.0 |  0.03
Neigh   | 0.00082803 | 0.0015322  | 0.0017791  |   0.8 | 29.67
Comm    | 0.0009706  | 0.002076   | 0.0030475  |   1.2 | 40.20
Output  | 2.1935e-05 | 6.2793e-05 | 0.00018001 |   0.0 |  1.22
Modify  | 1.955e-05  | 2.5213e-05 | 4.3869e-05 |   0.0 |  0.49
Other   |            | 0.0005036  |            |       |  9.75

Nlocal:    370.292 ave 375 max 342 min
Histogram: 3 0 0 1 0 0 0 0 0 20
Nghost:    1219.83 ave 1235 max 1134 min
Histogram: 2 1 1 0 0 0 0 0 0 20
Neighs:    7737.04 ave 7984 max 6870 min
Histogram: 2 0 2 0 0 0 0 0 10 10

Total # of neighbors = 185689
Ave neighs/atom = 20.8945
Ave special neighs/atom = 0.00540115
Neighbor list builds = 1
Dangerous builds = 0
run 10
Per MPI rank memory allocation (min/avg/max) = 11.37 | 11.39 | 11.48 Mbytes
c_com[1] c_com[2] c_com[3] 
   25.388128    18.718601    16.175905 
   25.382126    18.753252    16.163048 
Loop time of 0.00519173 on 24 procs for 10 steps with 8887 atoms

Performance: 1664184.053 tau/day, 1926.139 timesteps/s
49.7% CPU use with 24 MPI tasks x no OpenMP threads

MPI task timing breakdown:
Section |  min time  |  avg time  |  max time  |%varavg| %total
---------------------------------------------------------------
Pair    | 0.00086093 | 0.00096213 | 0.0010192  |   0.0 | 18.53
Bond    | 0          | 1.7087e-06 | 4.2915e-06 |   0.0 |  0.03
Neigh   | 0.00082922 | 0.0015348  | 0.0017672  |   0.8 | 29.56
Comm    | 0.0016117  | 0.0022251  | 0.003073   |   0.8 | 42.86
Output  | 2.1935e-05 | 4.4296e-05 | 5.9128e-05 |   0.0 |  0.85
Modify  | 2.3127e-05 | 2.5928e-05 | 4.3631e-05 |   0.0 |  0.50
Other   |            | 0.0003979  |            |       |  7.66

Nlocal:    370.292 ave 375 max 342 min
Histogram: 3 0 0 1 0 0 0 0 0 20
Nghost:    1219.75 ave 1236 max 1133 min
Histogram: 2 1 1 0 0 0 0 0 0 20
Neighs:    7737.04 ave 7984 max 6870 min
Histogram: 2 0 2 0 0 0 0 0 10 10

Total # of neighbors = 185689
Ave neighs/atom = 20.8945
Ave special neighs/atom = 0.00540115
Neighbor list builds = 1
Dangerous builds = 0
run 10
Per MPI rank memory allocation (min/avg/max) = 11.37 | 11.39 | 11.48 Mbytes
c_com[1] c_com[2] c_com[3] 
   25.382126    18.753252    16.163048 
   25.385353    18.789043    16.174397 
Loop time of 0.00520248 on 24 procs for 10 steps with 8887 atoms

Performance: 1660745.729 tau/day, 1922.159 timesteps/s
58.5% CPU use with 24 MPI tasks x no OpenMP threads

MPI task timing breakdown:
Section |  min time  |  avg time  |  max time  |%varavg| %total
---------------------------------------------------------------
Pair    | 0.00085592 | 0.00096136 | 0.0010273  |   0.0 | 18.48
Bond    | 0          | 1.7186e-06 | 4.2915e-06 |   0.0 |  0.03
Neigh   | 0.00082803 | 0.0015238  | 0.0017631  |   0.8 | 29.29
Comm    | 0.0020757  | 0.0023612  | 0.0030558  |   0.6 | 45.39
Output  | 1.8835e-05 | 3.5793e-05 | 5.1975e-05 |   0.0 |  0.69
Modify  | 2.1219e-05 | 2.5382e-05 | 4.5776e-05 |   0.0 |  0.49
Other   |            | 0.0002932  |            |       |  5.64

Nlocal:    370.292 ave 375 max 342 min
Histogram: 3 0 0 1 0 0 0 0 0 20
Nghost:    1219.79 ave 1236 max 1133 min
Histogram: 2 1 1 0 0 0 0 0 0 20
Neighs:    7737.04 ave 7984 max 6870 min
Histogram: 2 0 2 0 0 0 0 0 10 10

Total # of neighbors = 185689
Ave neighs/atom = 20.8945
Ave special neighs/atom = 0.00540115
Neighbor list builds = 1
Dangerous builds = 0
run 10
Per MPI rank memory allocation (min/avg/max) = 11.37 | 11.39 | 11.48 Mbytes
c_com[1] c_com[2] c_com[3] 
   25.385353    18.789043    16.174397 
   25.397935    18.825308     16.19266 
Loop time of 0.00516455 on 24 procs for 10 steps with 8887 atoms

Performance: 1672942.226 tau/day, 1936.276 timesteps/s
64.5% CPU use with 24 MPI tasks x no OpenMP threads

MPI task timing breakdown:
Section |  min time  |  avg time  |  max time  |%varavg| %total
---------------------------------------------------------------
Pair    | 0.00086045 | 0.00096164 | 0.0010302  |   0.0 | 18.62
Bond    | 0          | 1.4206e-06 | 4.0531e-06 |   0.0 |  0.03
Neigh   | 0.00078487 | 0.0015387  | 0.001699   |   0.6 | 29.79
Comm    | 0.0020483  | 0.0022929  | 0.0030866  |   0.5 | 44.40
Output  | 2.0981e-05 | 3.9985e-05 | 6.6042e-05 |   0.0 |  0.77
Modify  | 2.1696e-05 | 2.5243e-05 | 4.6492e-05 |   0.0 |  0.49
Other   |            | 0.0003047  |            |       |  5.90

Nlocal:    370.292 ave 375 max 342 min
Histogram: 3 0 0 1 0 0 0 0 0 20
Nghost:    1219.79 ave 1236 max 1133 min
Histogram: 2 1 1 0 0 0 0 0 0 20
Neighs:    7737.04 ave 7984 max 6870 min
Histogram: 2 0 2 0 0 0 0 0 10 10

Total # of neighbors = 185689
Ave neighs/atom = 20.8945
Ave special neighs/atom = 0.00540115
Neighbor list builds = 1
Dangerous builds = 0
run 10
Per MPI rank memory allocation (min/avg/max) = 11.37 | 11.39 | 11.48 Mbytes
c_com[1] c_com[2] c_com[3] 
   25.397935    18.825308     16.19266 
   25.414596    18.874208    16.209696 
Loop time of 0.00517804 on 24 procs for 10 steps with 8887 atoms

Performance: 1668583.658 tau/day, 1931.231 timesteps/s
53.1% CPU use with 24 MPI tasks x no OpenMP threads

MPI task timing breakdown:
Section |  min time  |  avg time  |  max time  |%varavg| %total
---------------------------------------------------------------
Pair    | 0.00085688 | 0.00096162 | 0.0010276  |   0.0 | 18.57
Bond    | 0          | 1.6888e-06 | 4.0531e-06 |   0.0 |  0.03
Neigh   | 0.00079703 | 0.0015288  | 0.001647   |   0.7 | 29.52
Comm    | 0.0021186  | 0.0023225  | 0.003119   |   0.6 | 44.85
Output  | 2.3127e-05 | 3.9051e-05 | 5.6982e-05 |   0.0 |  0.75
Modify  | 2.0981e-05 | 2.5004e-05 | 3.8862e-05 |   0.0 |  0.48
Other   |            | 0.0002994  |            |       |  5.78

Nlocal:    370.292 ave 375 max 342 min
Histogram: 3 0 0 1 0 0 0 0 0 20
Nghost:    1219.79 ave 1237 max 1133 min
Histogram: 2 1 1 0 0 0 0 0 0 20
Neighs:    7737.04 ave 7984 max 6870 min
Histogram: 2 0 2 0 0 0 0 0 10 10

Total # of neighbors = 185689
Ave neighs/atom = 20.8945
Ave special neighs/atom = 0.00540115
Neighbor list builds = 1
Dangerous builds = 0
run 10
Per MPI rank memory allocation (min/avg/max) = 11.37 | 11.39 | 11.48 Mbytes
c_com[1] c_com[2] c_com[3] 
   25.414596    18.874208    16.209696 
   25.445018    18.918511    16.236684 
Loop time of 0.00521478 on 24 procs for 10 steps with 8887 atoms

Performance: 1656829.062 tau/day, 1917.626 timesteps/s
55.9% CPU use with 24 MPI tasks x no OpenMP threads

MPI task timing breakdown:
Section |  min time  |  avg time  |  max time  |%varavg| %total
---------------------------------------------------------------
Pair    | 0.00085497 | 0.00096659 | 0.0010612  |   0.0 | 18.54
Bond    | 0          | 1.8577e-06 | 5.2452e-06 |   0.0 |  0.04
Neigh   | 0.00082803 | 0.0015319  | 0.0017629  |   0.8 | 29.38
Comm    | 0.0020437  | 0.0023441  | 0.003129   |   0.7 | 44.95
Output  | 2.0027e-05 | 3.8226e-05 | 5.2214e-05 |   0.0 |  0.73
Modify  | 2.0504e-05 | 2.5342e-05 | 4.6015e-05 |   0.0 |  0.49
Other   |            | 0.0003067  |            |       |  5.88

Nlocal:    370.292 ave 375 max 342 min
Histogram: 3 0 0 1 0 0 0 0 0 20
Nghost:    1219.88 ave 1238 max 1133 min
Histogram: 2 1 1 0 0 0 0 0 0 20
Neighs:    7737.04 ave 7984 max 6870 min
Histogram: 2 0 2 0 0 0 0 0 10 10

Total # of neighbors = 185689
Ave neighs/atom = 20.8945
Ave special neighs/atom = 0.00540115
Neighbor list builds = 1
Dangerous builds = 0
run 10
Per MPI rank memory allocation (min/avg/max) = 11.37 | 11.39 | 11.48 Mbytes
c_com[1] c_com[2] c_com[3] 
   25.445018    18.918511    16.236684 
    25.48121    18.978757    16.252636 
Loop time of 0.00517893 on 24 procs for 10 steps with 8887 atoms

Performance: 1668298.801 tau/day, 1930.901 timesteps/s
54.7% CPU use with 24 MPI tasks x no OpenMP threads

MPI task timing breakdown:
Section |  min time  |  avg time  |  max time  |%varavg| %total
---------------------------------------------------------------
Pair    | 0.00085807 | 0.00096127 | 0.0010352  |   0.0 | 18.56
Bond    | 0          | 1.8179e-06 | 4.0531e-06 |   0.0 |  0.04
Neigh   | 0.00079513 | 0.0014927  | 0.001641   |   0.8 | 28.82
Comm    | 0.0020554  | 0.0023489  | 0.0031655  |   0.6 | 45.35
Output  | 2.2173e-05 | 3.9339e-05 | 6.6996e-05 |   0.0 |  0.76
Modify  | 2.0504e-05 | 2.5272e-05 | 4.6253e-05 |   0.0 |  0.49
Other   |            | 0.0003097  |            |       |  5.98

Nlocal:    370.292 ave 375 max 342 min
Histogram: 3 0 0 1 0 0 0 0 0 20
Nghost:    1220.08 ave 1239 max 1134 min
Histogram: 2 1 1 0 0 0 0 0 0 20
Neighs:    7737.04 ave 7984 max 6870 min
Histogram: 2 0 2 0 0 0 0 0 10 10

Total # of neighbors = 185689
Ave neighs/atom = 20.8945
Ave special neighs/atom = 0.00540115
Neighbor list builds = 1
Dangerous builds = 0
run 10
Per MPI rank memory allocation (min/avg/max) = 11.37 | 11.39 | 11.48 Mbytes
c_com[1] c_com[2] c_com[3] 
    25.48121    18.978757    16.252636 
   25.524253    19.060698    16.270229 
Loop time of 0.00521484 on 24 procs for 10 steps with 8887 atoms

Performance: 1656810.125 tau/day, 1917.604 timesteps/s
56.7% CPU use with 24 MPI tasks x no OpenMP threads

MPI task timing breakdown:
Section |  min time  |  avg time  |  max time  |%varavg| %total
---------------------------------------------------------------
Pair    | 0.00086212 | 0.00096111 | 0.001029   |   0.0 | 18.43
Bond    | 0          | 1.4901e-06 | 4.2915e-06 |   0.0 |  0.03
Neigh   | 0.00082803 | 0.0015262  | 0.0017631  |   0.8 | 29.27
Comm    | 0.0020413  | 0.0023539  | 0.003088   |   0.6 | 45.14
Output  | 1.9789e-05 | 3.9438e-05 | 5.4121e-05 |   0.0 |  0.76
Modify  | 2.0742e-05 | 2.5858e-05 | 4.3154e-05 |   0.0 |  0.50
Other   |            | 0.0003069  |            |       |  5.88

Nlocal:    370.292 ave 375 max 342 min
Histogram: 3 0 0 1 0 0 0 0 0 20
Nghost:    1219.92 ave 1239 max 1132 min
Histogram: 2 1 1 0 0 0 0 0 0 20
Neighs:    7737.04 ave 7984 max 6870 min
Histogram: 2 0 2 0 0 0 0 0 10 10

Total # of neighbors = 185689
Ave neighs/atom = 20.8945
Ave special neighs/atom = 0.00540115
Neighbor list builds = 1
Dangerous builds = 0
run 10
Per MPI rank memory allocation (min/avg/max) = 11.37 | 11.39 | 11.48 Mbytes
c_com[1] c_com[2] c_com[3] 
   25.524253    19.060698    16.270229 
   25.555453    19.133325    16.293056 
Loop time of 0.00518375 on 24 procs for 10 steps with 8887 atoms

Performance: 1666748.198 tau/day, 1929.107 timesteps/s
59.5% CPU use with 24 MPI tasks x no OpenMP threads

MPI task timing breakdown:
Section |  min time  |  avg time  |  max time  |%varavg| %total
---------------------------------------------------------------
Pair    | 0.00086141 | 0.00096282 | 0.0010271  |   0.0 | 18.57
Bond    | 0          | 1.6093e-06 | 3.8147e-06 |   0.0 |  0.03
Neigh   | 0.00079513 | 0.0014293  | 0.0016398  |   0.9 | 27.57
Comm    | 0.0020962  | 0.0024177  | 0.0031428  |   0.7 | 46.64
Output  | 2.0981e-05 | 3.6756e-05 | 5.5075e-05 |   0.0 |  0.71
Modify  | 2.0981e-05 | 2.5064e-05 | 4.22e-05   |   0.0 |  0.48
Other   |            | 0.0003105  |            |       |  5.99

Nlocal:    370.292 ave 375 max 342 min
Histogram: 3 0 0 1 0 0 0 0 0 20
Nghost:    1220 ave 1240 max 1132 min
Histogram: 2 1 1 0 0 0 0 0 0 20
Neighs:    7737.04 ave 7984 max 6870 min
Histogram: 2 0 2 0 0 0 0 0 10 10

Total # of neighbors = 185689
Ave neighs/atom = 20.8945
Ave special neighs/atom = 0.00540115
Neighbor list builds = 1
Dangerous builds = 0
run 10
Per MPI rank memory allocation (min/avg/max) = 11.37 | 11.39 | 11.48 Mbytes
c_com[1] c_com[2] c_com[3] 
   25.555453    19.133325    16.293056 
   25.586517    19.206757    16.311636 
Loop time of 0.00521786 on 24 procs for 10 steps with 8887 atoms

Performance: 1655851.204 tau/day, 1916.494 timesteps/s
62.3% CPU use with 24 MPI tasks x no OpenMP threads

MPI task timing breakdown:
Section |  min time  |  avg time  |  max time  |%varavg| %total
---------------------------------------------------------------
Pair    | 0.00085568 | 0.00096447 | 0.0010283  |   0.0 | 18.48
Bond    | 0          | 1.5597e-06 | 5.9605e-06 |   0.0 |  0.03
Neigh   | 0.00082994 | 0.0015322  | 0.0017679  |   0.8 | 29.36
Comm    | 0.0020466  | 0.0023403  | 0.0030911  |   0.6 | 44.85
Output  | 1.9073e-05 | 3.913e-05  | 5.6028e-05 |   0.0 |  0.75
Modify  | 2.0504e-05 | 2.558e-05  | 4.6968e-05 |   0.0 |  0.49
Other   |            | 0.0003146  |            |       |  6.03

Nlocal:    370.292 ave 375 max 342 min
Histogram: 3 0 0 1 0 0 0 0 0 20
Nghost:    1220.08 ave 1240 max 1132 min
Histogram: 2 1 1 0 0 0 0 0 0 20
Neighs:    7737.04 ave 7984 max 6870 min
Histogram: 2 0 2 0 0 0 0 0 10 10

Total # of neighbors = 185689
Ave neighs/atom = 20.8945
Ave special neighs/atom = 0.00540115
Neighbor list builds = 1
Dangerous builds = 0
run 10
Per MPI rank memory allocation (min/avg/max) = 11.37 | 11.39 | 11.48 Mbytes
c_com[1] c_com[2] c_com[3] 
   25.586517    19.206757    16.311636 
   25.607399    19.284877    16.320858 
Loop time of 0.00694761 on 24 procs for 10 steps with 8887 atoms

Performance: 1243593.693 tau/day, 1439.345 timesteps/s
54.0% CPU use with 24 MPI tasks x no OpenMP threads

MPI task timing breakdown:
Section |  min time  |  avg time  |  max time  |%varavg| %total
---------------------------------------------------------------
Pair    | 0.00086737 | 0.00097    | 0.0010362  |   0.0 | 13.96
Bond    | 0          | 1.4702e-06 | 5.722e-06  |   0.0 |  0.02
Neigh   | 0.0024509  | 0.0029483  | 0.0032918  |   0.7 | 42.44
Comm    | 0.0022664  | 0.0026552  | 0.0031962  |   0.8 | 38.22
Output  | 2.1935e-05 | 3.9091e-05 | 5.8174e-05 |   0.0 |  0.56
Modify  | 1.9789e-05 | 2.4736e-05 | 4.2677e-05 |   0.0 |  0.36
Other   |            | 0.0003088  |            |       |  4.44

Nlocal:    370.292 ave 375 max 342 min
Histogram: 3 0 0 1 0 0 0 0 0 20
Nghost:    1220.12 ave 1240 max 1132 min
Histogram: 2 1 1 0 0 0 0 0 0 20
Neighs:    7737.04 ave 7984 max 6870 min
Histogram: 2 0 2 0 0 0 0 0 10 10

Total # of neighbors = 185689
Ave neighs/atom = 20.8945
Ave special neighs/atom = 0.00540115
Neighbor list builds = 2
Dangerous builds = 0
run 10
Per MPI rank memory allocation (min/avg/max) = 11.37 | 11.39 | 11.48 Mbytes
c_com[1] c_com[2] c_com[3] 
   25.607399    19.284877    16.320858 
   25.615299    19.380056    16.308635 
Loop time of 0.00520141 on 24 procs for 10 steps with 8887 atoms

Performance: 1661088.287 tau/day, 1922.556 timesteps/s
52.1% CPU use with 24 MPI tasks x no OpenMP threads

MPI task timing breakdown:
Section |  min time  |  avg time  |  max time  |%varavg| %total
---------------------------------------------------------------
Pair    | 0.00085855 | 0.0009603  | 0.0010302  |   0.0 | 18.46
Bond    | 0          | 1.5597e-06 | 4.2915e-06 |   0.0 |  0.03
Neigh   | 0.00082707 | 0.0015333  | 0.001766   |   0.8 | 29.48
Comm    | 0.002074   | 0.0023387  | 0.0030715  |   0.6 | 44.96
Output  | 2.0981e-05 | 3.9478e-05 | 6.6996e-05 |   0.0 |  0.76
Modify  | 2.1458e-05 | 2.565e-05  | 5.0783e-05 |   0.0 |  0.49
Other   |            | 0.0003024  |            |       |  5.81

Nlocal:    370.292 ave 375 max 342 min
Histogram: 3 0 0 1 0 0 0 0 0 20
Nghost:    1220.21 ave 1241 max 1132 min
Histogram: 2 1 1 0 0 0 0 0 0 20
Neighs:    7737.04 ave 7984 max 6870 min
Histogram: 2 0 2 0 0 0 0 0 10 10

Total # of neighbors = 185689
Ave neighs/atom = 20.8945
Ave special neighs/atom = 0.00540115
Neighbor list builds = 1
Dangerous builds = 0
run 10
Per MPI rank memory allocation (min/avg/max) = 11.37 | 11.39 | 11.48 Mbytes
c_com[1] c_com[2] c_com[3] 
   25.615299    19.380056    16.308635 
   25.614711    19.495284    16.278778 
Loop time of 0.00521459 on 24 procs for 10 steps with 8887 atoms

Performance: 1656889.033 tau/day, 1917.696 timesteps/s
53.5% CPU use with 24 MPI tasks x no OpenMP threads

MPI task timing breakdown:
Section |  min time  |  avg time  |  max time  |%varavg| %total
---------------------------------------------------------------
Pair    | 0.00085878 | 0.00096245 | 0.0010269  |   0.0 | 18.46
Bond    | 0          | 1.2616e-06 | 3.3379e-06 |   0.0 |  0.02
Neigh   | 0.00082994 | 0.0015357  | 0.0017631  |   0.8 | 29.45
Comm    | 0.002039   | 0.0023407  | 0.0030675  |   0.6 | 44.89
Output  | 2.0981e-05 | 3.8385e-05 | 5.3167e-05 |   0.0 |  0.74
Modify  | 2.2173e-05 | 2.4925e-05 | 4.2677e-05 |   0.0 |  0.48
Other   |            | 0.0003111  |            |       |  5.97

Nlocal:    370.292 ave 375 max 342 min
Histogram: 3 0 0 1 0 0 0 0 0 20
Nghost:    1220.38 ave 1242 max 1132 min
Histogram: 2 1 1 0 0 0 0 0 0 20
Neighs:    7737.04 ave 7984 max 6870 min
Histogram: 2 0 2 0 0 0 0 0 10 10

Total # of neighbors = 185689
Ave neighs/atom = 20.8945
Ave special neighs/atom = 0.00540115
Neighbor list builds = 1
Dangerous builds = 0
run 10
Per MPI rank memory allocation (min/avg/max) = 11.37 | 11.39 | 11.48 Mbytes
c_com[1] c_com[2] c_com[3] 
   25.614711    19.495284    16.278778 
   25.614938    19.600137    16.253716 
Loop time of 0.00516031 on 24 procs for 10 steps with 8887 atoms

Performance: 1674317.413 tau/day, 1937.867 timesteps/s
50.1% CPU use with 24 MPI tasks x no OpenMP threads

MPI task timing breakdown:
Section |  min time  |  avg time  |  max time  |%varavg| %total
---------------------------------------------------------------
Pair    | 0.00085759 | 0.00096232 | 0.001025   |   0.0 | 18.65
Bond    | 0          | 1.808e-06  | 5.0068e-06 |   0.0 |  0.04
Neigh   | 0.00079703 | 0.0014941  | 0.001637   |   0.8 | 28.95
Comm    | 0.002074   | 0.0023136  | 0.003063   |   0.6 | 44.83
Output  | 2.0027e-05 | 3.8703e-05 | 5.6982e-05 |   0.0 |  0.75
Modify  | 2.0027e-05 | 2.5312e-05 | 4.6253e-05 |   0.0 |  0.49
Other   |            | 0.0003245  |            |       |  6.29

Nlocal:    370.292 ave 375 max 342 min
Histogram: 3 0 0 1 0 0 0 0 0 20
Nghost:    1220.46 ave 1243 max 1132 min
Histogram: 2 1 1 0 0 0 0 0 0 20
Neighs:    7737.04 ave 7984 max 6870 min
Histogram: 2 0 2 0 0 0 0 0 10 10

Total # of neighbors = 185689
Ave neighs/atom = 20.8945
Ave special neighs/atom = 0.00540115
Neighbor list builds = 1
Dangerous builds = 0
run 10
Per MPI rank memory allocation (min/avg/max) = 11.37 | 11.39 | 11.48 Mbytes
c_com[1] c_com[2] c_com[3] 
   25.614938    19.600137    16.253716 
   25.630952    19.688988     16.24692 
Loop time of 0.00689589 on 24 procs for 10 steps with 8887 atoms

Performance: 1252920.247 tau/day, 1450.139 timesteps/s
59.2% CPU use with 24 MPI tasks x no OpenMP threads

MPI task timing breakdown:
Section |  min time  |  avg time  |  max time  |%varavg| %total
---------------------------------------------------------------
Pair    | 0.00086904 | 0.00097181 | 0.0010371  |   0.0 | 14.09
Bond    | 0          | 1.9173e-06 | 4.0531e-06 |   0.0 |  0.03
Neigh   | 0.0015917  | 0.0029142  | 0.0032687  |   1.1 | 42.26
Comm    | 0.002152   | 0.0026247  | 0.0040543  |   1.2 | 38.06
Output  | 1.9073e-05 | 3.7849e-05 | 5.7936e-05 |   0.0 |  0.55
Modify  | 2.0742e-05 | 2.4825e-05 | 4.4346e-05 |   0.0 |  0.36
Other   |            | 0.0003206  |            |       |  4.65

Nlocal:    370.292 ave 375 max 342 min
Histogram: 3 0 0 1 0 0 0 0 0 20
Nghost:    1220.46 ave 1243 max 1132 min
Histogram: 2 1 1 0 0 0 0 0 0 20
Neighs:    7737.04 ave 7984 max 6870 min
Histogram: 2 0 2 0 0 0 0 0 10 10

Total # of neighbors = 185689
Ave neighs/atom = 20.8945
Ave special neighs/atom = 0.00540115
Neighbor list builds = 2
Dangerous builds = 0
run 10
Per MPI rank memory allocation (min/avg/max) = 11.37 | 11.39 | 11.48 Mbytes
c_com[1] c_com[2] c_com[3] 
   25.630952    19.688988     16.24692 
   25.637798    19.763747    16.235342 
Loop time of 0.00691253 on 24 procs for 10 steps with 8887 atoms

Performance: 1249904.256 tau/day, 1446.648 timesteps/s
61.5% CPU use with 24 MPI tasks x no OpenMP threads

MPI task timing breakdown:
Section |  min time  |  avg time  |  max time  |%varavg| %total
---------------------------------------------------------------
Pair    | 0.00086904 | 0.00097114 | 0.0010347  |   0.0 | 14.05
Bond    | 0          | 1.7881e-06 | 5.722e-06  |   0.0 |  0.03
Neigh   | 0.0015969  | 0.0029135  | 0.0032692  |   1.1 | 42.15
Comm    | 0.002213   | 0.0026547  | 0.004035   |   1.2 | 38.40
Output  | 2.3127e-05 | 4.2677e-05 | 5.7936e-05 |   0.0 |  0.62
Modify  | 2.1458e-05 | 2.5173e-05 | 4.2677e-05 |   0.0 |  0.36
Other   |            | 0.0003035  |            |       |  4.39

Nlocal:    370.292 ave 375 max 342 min
Histogram: 3 0 0 1 0 0 0 0 0 20
Nghost:    1220.38 ave 1243 max 1132 min
Histogram: 2 1 1 0 0 0 0 0 0 20
Neighs:    7737.04 ave 7984 max 6870 min
Histogram: 2 0 2 0 0 0 0 0 10 10

Total # of neighbors = 185689
Ave neighs/atom = 20.8945
Ave special neighs/atom = 0.00540115
Neighbor list builds = 2
Dangerous builds = 0
run 10
Per MPI rank memory allocation (min/avg/max) = 11.37 | 11.39 | 11.48 Mbytes
c_com[1] c_com[2] c_com[3] 
   25.637798    19.763747    16.235342 
   25.629296     19.83125    16.236426 
Loop time of 0.00511683 on 24 procs for 10 steps with 8887 atoms

Performance: 1688545.358 tau/day, 1954.335 timesteps/s
66.8% CPU use with 24 MPI tasks x no OpenMP threads

MPI task timing breakdown:
Section |  min time  |  avg time  |  max time  |%varavg| %total
---------------------------------------------------------------
Pair    | 0.00087118 | 0.00096985 | 0.001029   |   0.0 | 18.95
Bond    | 0          | 1.7583e-06 | 4.7684e-06 |   0.0 |  0.03
Neigh   | 0.00079703 | 0.0014821  | 0.0016251  |   0.8 | 28.96
Comm    | 0.0020108  | 0.0022956  | 0.0029953  |   0.6 | 44.86
Output  | 1.812e-05  | 3.6438e-05 | 4.7922e-05 |   0.0 |  0.71
Modify  | 2.0742e-05 | 2.557e-05  | 4.53e-05   |   0.0 |  0.50
Other   |            | 0.0003055  |            |       |  5.97

Nlocal:    370.292 ave 375 max 342 min
Histogram: 3 0 0 1 0 0 0 0 0 20
Nghost:    1220.38 ave 1243 max 1132 min
Histogram: 2 1 1 0 0 0 0 0 0 20
Neighs:    7737.04 ave 7984 max 6870 min
Histogram: 2 0 2 0 0 0 0 0 10 10

Total # of neighbors = 185689
Ave neighs/atom = 20.8945
Ave special neighs/atom = 0.00540115
Neighbor list builds = 1
Dangerous builds = 0
run 10
Per MPI rank memory allocation (min/avg/max) = 11.37 | 11.39 | 11.48 Mbytes
c_com[1] c_com[2] c_com[3] 
   25.629296     19.83125    16.236426 
   25.605527    19.899682    16.228954 
Loop time of 0.00684956 on 24 procs for 10 steps with 8887 atoms

Performance: 1261395.415 tau/day, 1459.948 timesteps/s
57.2% CPU use with 24 MPI tasks x no OpenMP threads

MPI task timing breakdown:
Section |  min time  |  avg time  |  max time  |%varavg| %total
---------------------------------------------------------------
Pair    | 0.00086808 | 0.00097643 | 0.0010507  |   0.0 | 14.26
Bond    | 0          | 1.4106e-06 | 3.8147e-06 |   0.0 |  0.02
Neigh   | 0.002362   | 0.0030759  | 0.0032318  |   0.5 | 44.91
Comm    | 0.0021484  | 0.0024173  | 0.0032089  |   0.6 | 35.29
Output  | 1.7166e-05 | 3.4442e-05 | 4.5061e-05 |   0.0 |  0.50
Modify  | 2.0742e-05 | 2.5342e-05 | 4.5776e-05 |   0.0 |  0.37
Other   |            | 0.0003187  |            |       |  4.65

Nlocal:    370.292 ave 375 max 342 min
Histogram: 3 0 0 1 0 0 0 0 0 20
Nghost:    1220.38 ave 1243 max 1132 min
Histogram: 2 1 1 0 0 0 0 0 0 20
Neighs:    7737.04 ave 7984 max 6870 min
Histogram: 2 0 2 0 0 0 0 0 10 10

Total # of neighbors = 185689
Ave neighs/atom = 20.8945
Ave special neighs/atom = 0.00540115
Neighbor list builds = 2
Dangerous builds = 0
run 10
Per MPI rank memory allocation (min/avg/max) = 11.37 | 11.39 | 11.48 Mbytes
c_com[1] c_com[2] c_com[3] 
   25.605527    19.899682    16.228954 
   25.572098    19.958174    16.215974 
Loop time of 0.00514163 on 24 procs for 10 steps with 8887 atoms

Performance: 1680402.334 tau/day, 1944.910 timesteps/s
53.5% CPU use with 24 MPI tasks x no OpenMP threads

MPI task timing breakdown:
Section |  min time  |  avg time  |  max time  |%varavg| %total
---------------------------------------------------------------
Pair    | 0.00086117 | 0.00096418 | 0.0010381  |   0.0 | 18.75
Bond    | 0          | 1.808e-06  | 5.0068e-06 |   0.0 |  0.04
Neigh   | 0.00080013 | 0.0014903  | 0.0016329  |   0.8 | 28.98
Comm    | 0.0020785  | 0.0023051  | 0.0030484  |   0.6 | 44.83
Output  | 2.3127e-05 | 3.8912e-05 | 5.0068e-05 |   0.0 |  0.76
Modify  | 2.1458e-05 | 2.5789e-05 | 4.9353e-05 |   0.0 |  0.50
Other   |            | 0.0003155  |            |       |  6.14

Nlocal:    370.292 ave 375 max 342 min
Histogram: 3 0 0 1 0 0 0 0 0 20
Nghost:    1220.38 ave 1244 max 1132 min
Histogram: 2 1 1 0 0 0 0 0 3 17
Neighs:    7737.04 ave 7984 max 6870 min
Histogram: 2 0 2 0 0 0 0 0 10 10

Total # of neighbors = 185689
Ave neighs/atom = 20.8945
Ave special neighs/atom = 0.00540115
Neighbor list builds = 1
Dangerous builds = 0
run 10
Per MPI rank memory allocation (min/avg/max) = 11.37 | 11.39 | 11.48 Mbytes
c_com[1] c_com[2] c_com[3] 
   25.572098    19.958174    16.215974 
   25.544123    20.022998    16.219343 
Loop time of 0.00685662 on 24 procs for 10 steps with 8887 atoms

Performance: 1260096.025 tau/day, 1458.444 timesteps/s
65.6% CPU use with 24 MPI tasks x no OpenMP threads

MPI task timing breakdown:
Section |  min time  |  avg time  |  max time  |%varavg| %total
---------------------------------------------------------------
Pair    | 0.00087118 | 0.00097189 | 0.0010417  |   0.0 | 14.17
Bond    | 0          | 1.5895e-06 | 5.9605e-06 |   0.0 |  0.02
Neigh   | 0.0023859  | 0.0030283  | 0.0032508  |   0.6 | 44.17
Comm    | 0.0021749  | 0.0024765  | 0.003186   |   0.7 | 36.12
Output  | 2.0981e-05 | 4.065e-05  | 5.8889e-05 |   0.0 |  0.59
Modify  | 2.0981e-05 | 2.6027e-05 | 4.5061e-05 |   0.0 |  0.38
Other   |            | 0.0003117  |            |       |  4.55

Nlocal:    370.292 ave 375 max 342 min
Histogram: 3 0 0 1 0 0 0 0 0 20
Nghost:    1220.46 ave 1245 max 1132 min
Histogram: 2 1 1 0 0 0 0 0 4 16
Neighs:    7737.04 ave 7984 max 6870 min
Histogram: 2 0 2 0 0 0 0 0 10 10

Total # of neighbors = 185689
Ave neighs/atom = 20.8945
Ave special neighs/atom = 0.00540115
Neighbor list builds = 2
Dangerous builds = 0
run 10
Per MPI rank memory allocation (min/avg/max) = 11.37 | 11.39 | 11.48 Mbytes
c_com[1] c_com[2] c_com[3] 
   25.544123    20.022998    16.219343 
   25.524913    20.086182    16.213794 
Loop time of 0.00509339 on 24 procs for 10 steps with 8887 atoms

Performance: 1696317.613 tau/day, 1963.331 timesteps/s
49.9% CPU use with 24 MPI tasks x no OpenMP threads

MPI task timing breakdown:
Section |  min time  |  avg time  |  max time  |%varavg| %total
---------------------------------------------------------------
Pair    | 0.00085545 | 0.00096247 | 0.0010238  |   0.0 | 18.90
Bond    | 0          | 1.8974e-06 | 5.2452e-06 |   0.0 |  0.04
Neigh   | 0.0008359  | 0.0016018  | 0.0017869  |   0.6 | 31.45
Comm    | 0.0013461  | 0.0019991  | 0.0029314  |   0.9 | 39.25
Output  | 1.9073e-05 | 5.6485e-05 | 0.00016594 |   0.0 |  1.11
Modify  | 2.1458e-05 | 2.5382e-05 | 4.53e-05   |   0.0 |  0.50
Other   |            | 0.0004462  |            |       |  8.76

Nlocal:    370.292 ave 375 max 342 min
Histogram: 3 0 0 1 0 0 0 0 0 20
Nghost:    1220.46 ave 1245 max 1132 min
Histogram: 2 1 1 0 0 0 0 0 4 16
Neighs:    7737.04 ave 7984 max 6870 min
Histogram: 2 0 2 0 0 0 0 0 10 10

Total # of neighbors = 185689
Ave neighs/atom = 20.8945
Ave special neighs/atom = 0.00540115
Neighbor list builds = 1
Dangerous builds = 0
run 10
Per MPI rank memory allocation (min/avg/max) = 11.37 | 11.39 | 11.48 Mbytes
c_com[1] c_com[2] c_com[3] 
   25.524913    20.086182    16.213794 
   25.497907    20.143697    16.198993 
Loop time of 0.00508055 on 24 procs for 10 steps with 8887 atoms

Performance: 1700602.977 tau/day, 1968.290 timesteps/s
62.3% CPU use with 24 MPI tasks x no OpenMP threads

MPI task timing breakdown:
Section |  min time  |  avg time  |  max time  |%varavg| %total
---------------------------------------------------------------
Pair    | 0.00086117 | 0.00096506 | 0.0010297  |   0.0 | 19.00
Bond    | 0          | 1.5001e-06 | 5.0068e-06 |   0.0 |  0.03
Neigh   | 0.00082898 | 0.0015289  | 0.0017662  |   0.8 | 30.09
Comm    | 0.0013206  | 0.0020437  | 0.0029666  |   1.1 | 40.23
Output  | 2.0981e-05 | 5.9754e-05 | 0.00015903 |   0.0 |  1.18
Modify  | 2.0504e-05 | 2.569e-05  | 4.8161e-05 |   0.0 |  0.51
Other   |            | 0.000456   |            |       |  8.97

Nlocal:    370.292 ave 375 max 342 min
Histogram: 3 0 0 1 0 0 0 0 0 20
Nghost:    1220.54 ave 1245 max 1132 min
Histogram: 2 1 1 0 0 0 0 0 3 17
Neighs:    7737.04 ave 7984 max 6870 min
Histogram: 2 0 2 0 0 0 0 0 10 10

Total # of neighbors = 185689
Ave neighs/atom = 20.8945
Ave special neighs/atom = 0.00540115
Neighbor list builds = 1
Dangerous builds = 0
run 10
Per MPI rank memory allocation (min/avg/max) = 11.37 | 11.39 | 11.48 Mbytes
c_com[1] c_com[2] c_com[3] 
   25.497907    20.143697    16.198993 
    25.45665    20.192118    16.183632 
Loop time of 0.00506382 on 24 procs for 10 steps with 8887 atoms

Performance: 1706221.154 tau/day, 1974.793 timesteps/s
58.4% CPU use with 24 MPI tasks x no OpenMP threads

MPI task timing breakdown:
Section |  min time  |  avg time  |  max time  |%varavg| %total
---------------------------------------------------------------
Pair    | 0.00087309 | 0.00096783 | 0.0010271  |   0.0 | 19.11
Bond    | 0          | 1.6391e-06 | 3.8147e-06 |   0.0 |  0.03
Neigh   | 0.00083017 | 0.00158    | 0.001657   |   0.5 | 31.20
Comm    | 0.0014479  | 0.0019807  | 0.00295    |   0.9 | 39.11
Output  | 1.7166e-05 | 3.8912e-05 | 5.5075e-05 |   0.0 |  0.77
Modify  | 2.1219e-05 | 2.4587e-05 | 4.3154e-05 |   0.0 |  0.49
Other   |            | 0.0004702  |            |       |  9.29

Nlocal:    370.292 ave 375 max 342 min
Histogram: 3 0 0 1 0 0 0 0 0 20
Nghost:    1220.54 ave 1245 max 1132 min
Histogram: 2 1 1 0 0 0 0 0 3 17
Neighs:    7737.04 ave 7984 max 6870 min
Histogram: 2 0 2 0 0 0 0 0 10 10

Total # of neighbors = 185689
Ave neighs/atom = 20.8945
Ave special neighs/atom = 0.00540115
Neighbor list builds = 1
Dangerous builds = 0
run 10
Per MPI rank memory allocation (min/avg/max) = 11.37 | 11.39 | 11.48 Mbytes
c_com[1] c_com[2] c_com[3] 
    25.45665    20.192118    16.183632 
   25.421102    20.240897    16.140792 
Loop time of 0.00506943 on 24 procs for 10 steps with 8887 atoms

Performance: 1704332.062 tau/day, 1972.607 timesteps/s
56.7% CPU use with 24 MPI tasks x no OpenMP threads

MPI task timing breakdown:
Section |  min time  |  avg time  |  max time  |%varavg| %total
---------------------------------------------------------------
Pair    | 0.00085759 | 0.00096094 | 0.0010271  |   0.0 | 18.96
Bond    | 0          | 1.3709e-06 | 4.0531e-06 |   0.0 |  0.03
Neigh   | 0.00082994 | 0.0015342  | 0.0017829  |   0.8 | 30.26
Comm    | 0.0012233  | 0.0020885  | 0.0029871  |   1.1 | 41.20
Output  | 2.2888e-05 | 6.2873e-05 | 0.00016904 |   0.0 |  1.24
Modify  | 2.1458e-05 | 2.5352e-05 | 4.1485e-05 |   0.0 |  0.50
Other   |            | 0.0003962  |            |       |  7.82

Nlocal:    370.292 ave 375 max 342 min
Histogram: 3 0 0 1 0 0 0 0 0 20
Nghost:    1220.46 ave 1245 max 1132 min
Histogram: 2 1 1 0 0 0 0 0 4 16
Neighs:    7737.04 ave 7984 max 6870 min
Histogram: 2 0 2 0 0 0 0 0 10 10

Total # of neighbors = 185689
Ave neighs/atom = 20.8945
Ave special neighs/atom = 0.00540115
Neighbor list builds = 1
Dangerous builds = 0
run 10
Per MPI rank memory allocation (min/avg/max) = 11.37 | 11.39 | 11.48 Mbytes
c_com[1] c_com[2] c_com[3] 
   25.421102    20.240897    16.140792 
   25.402428    20.286002    16.077599 
Loop time of 0.00682836 on 24 procs for 10 steps with 8887 atoms

Performance: 1265311.556 tau/day, 1464.481 timesteps/s
58.0% CPU use with 24 MPI tasks x no OpenMP threads

MPI task timing breakdown:
Section |  min time  |  avg time  |  max time  |%varavg| %total
---------------------------------------------------------------
Pair    | 0.00086403 | 0.00097159 | 0.0010536  |   0.0 | 14.23
Bond    | 0          | 2.2749e-06 | 4.7684e-06 |   0.0 |  0.03
Neigh   | 0.0016599  | 0.003165   | 0.0033131  |   0.7 | 46.35
Comm    | 0.0011883  | 0.0021561  | 0.0038571  |   1.3 | 31.58
Output  | 1.9073e-05 | 6.1274e-05 | 0.00016308 |   0.0 |  0.90
Modify  | 2.0266e-05 | 2.5253e-05 | 4.5538e-05 |   0.0 |  0.37
Other   |            | 0.0004469  |            |       |  6.55

Nlocal:    370.292 ave 375 max 342 min
Histogram: 3 0 0 1 0 0 0 0 0 20
Nghost:    1220.46 ave 1245 max 1132 min
Histogram: 2 1 1 0 0 0 0 0 4 16
Neighs:    7737.04 ave 7984 max 6870 min
Histogram: 2 0 2 0 0 0 0 0 10 10

Total # of neighbors = 185689
Ave neighs/atom = 20.8945
Ave special neighs/atom = 0.00540115
Neighbor list builds = 2
Dangerous builds = 0
run 10
Per MPI rank memory allocation (min/avg/max) = 11.37 | 11.39 | 11.48 Mbytes
c_com[1] c_com[2] c_com[3] 
   25.402428    20.286002    16.077599 
   25.390705    20.340004    16.014061 
Loop time of 0.00508362 on 24 procs for 10 steps with 8887 atoms

Performance: 1699576.103 tau/day, 1967.102 timesteps/s
60.6% CPU use with 24 MPI tasks x no OpenMP threads

MPI task timing breakdown:
Section |  min time  |  avg time  |  max time  |%varavg| %total
---------------------------------------------------------------
Pair    | 0.00085974 | 0.00096348 | 0.0010247  |   0.0 | 18.95
Bond    | 0          | 1.7484e-06 | 5.722e-06  |   0.0 |  0.03
Neigh   | 0.00082803 | 0.0015147  | 0.001652   |   0.8 | 29.80
Comm    | 0.0012393  | 0.0020222  | 0.0029664  |   1.1 | 39.78
Output  | 1.812e-05  | 5.8105e-05 | 0.00016499 |   0.0 |  1.14
Modify  | 2.1458e-05 | 2.5153e-05 | 4.4107e-05 |   0.0 |  0.49
Other   |            | 0.0004983  |            |       |  9.80

Nlocal:    370.292 ave 375 max 342 min
Histogram: 3 0 0 1 0 0 0 0 0 20
Nghost:    1220.46 ave 1245 max 1132 min
Histogram: 2 1 1 0 0 0 0 0 4 16
Neighs:    7737.04 ave 7984 max 6870 min
Histogram: 2 0 2 0 0 0 0 0 10 10

Total # of neighbors = 185689
Ave neighs/atom = 20.8945
Ave special neighs/atom = 0.00540115
Neighbor list builds = 1
Dangerous builds = 0
run 10
Per MPI rank memory allocation (min/avg/max) = 11.37 | 11.39 | 11.48 Mbytes
c_com[1] c_com[2] c_com[3] 
   25.390705    20.340004    16.014061 
   25.379953    20.386765    15.959546 
Loop time of 0.0050835 on 24 procs for 10 steps with 8887 atoms

Performance: 1699615.958 tau/day, 1967.148 timesteps/s
66.4% CPU use with 24 MPI tasks x no OpenMP threads

MPI task timing breakdown:
Section |  min time  |  avg time  |  max time  |%varavg| %total
---------------------------------------------------------------
Pair    | 0.00085902 | 0.00096567 | 0.0010262  |   0.0 | 19.00
Bond    | 0          | 1.9868e-06 | 3.8147e-06 |   0.0 |  0.04
Neigh   | 0.0012689  | 0.0016241  | 0.001662   |   0.2 | 31.95
Comm    | 0.0010974  | 0.0019548  | 0.002516   |   0.9 | 38.45
Output  | 2.5034e-05 | 6.0032e-05 | 0.00016403 |   0.0 |  1.18
Modify  | 2.0027e-05 | 2.563e-05  | 4.8161e-05 |   0.0 |  0.50
Other   |            | 0.0004513  |            |       |  8.88

Nlocal:    370.292 ave 375 max 341 min
Histogram: 1 2 0 0 1 0 0 0 0 20
Nghost:    1220.46 ave 1245 max 1132 min
Histogram: 2 1 1 0 0 0 0 0 4 16
Neighs:    7737.04 ave 7984 max 6873 min
Histogram: 2 0 2 0 0 0 0 0 10 10

Total # of neighbors = 185689
Ave neighs/atom = 20.8945
Ave special neighs/atom = 0.00540115
Neighbor list builds = 1
Dangerous builds = 0
run 10
Per MPI rank memory allocation (min/avg/max) = 11.37 | 11.39 | 11.48 Mbytes
c_com[1] c_com[2] c_com[3] 
   25.379953    20.386765    15.959546 
    25.36247    20.445831     15.90072 
Loop time of 0.00509831 on 24 procs for 10 steps with 8887 atoms

Performance: 1694678.189 tau/day, 1961.433 timesteps/s
53.1% CPU use with 24 MPI tasks x no OpenMP threads

MPI task timing breakdown:
Section |  min time  |  avg time  |  max time  |%varavg| %total
---------------------------------------------------------------
Pair    | 0.00085592 | 0.00096142 | 0.001018   |   0.0 | 18.86
Bond    | 0          | 1.5696e-06 | 3.0994e-06 |   0.0 |  0.03
Neigh   | 0.00083113 | 0.0016186  | 0.001755   |   0.4 | 31.75
Comm    | 0.0012555  | 0.0019588  | 0.0029664  |   0.9 | 38.42
Output  | 2.0027e-05 | 4.366e-05  | 7.2002e-05 |   0.0 |  0.86
Modify  | 2.1219e-05 | 2.556e-05  | 4.6015e-05 |   0.0 |  0.50
Other   |            | 0.0004887  |            |       |  9.59

Nlocal:    370.292 ave 375 max 341 min
Histogram: 1 2 0 0 1 0 0 0 0 20
Nghost:    1220.38 ave 1245 max 1132 min
Histogram: 2 1 1 0 0 0 0 0 4 16
Neighs:    7737.04 ave 7984 max 6873 min
Histogram: 2 0 2 0 0 0 0 0 10 10

Total # of neighbors = 185689
Ave neighs/atom = 20.8945
Ave special neighs/atom = 0.00540115
Neighbor list builds = 1
Dangerous builds = 0
run 10
Per MPI rank memory allocation (min/avg/max) = 11.37 | 11.39 | 11.48 Mbytes
c_com[1] c_com[2] c_com[3] 
    25.36247    20.445831     15.90072 
   25.354085    20.498736    15.846651 
Loop time of 0.00504676 on 24 procs for 10 steps with 8887 atoms

Performance: 1711991.145 tau/day, 1981.471 timesteps/s
61.1% CPU use with 24 MPI tasks x no OpenMP threads

MPI task timing breakdown:
Section |  min time  |  avg time  |  max time  |%varavg| %total
---------------------------------------------------------------
Pair    | 0.00086188 | 0.00096122 | 0.0010245  |   0.0 | 19.05
Bond    | 0          | 2.3246e-06 | 5.722e-06  |   0.0 |  0.05
Neigh   | 0.00078011 | 0.0015758  | 0.00173    |   0.6 | 31.22
Comm    | 0.00156    | 0.0020358  | 0.0031049  |   0.8 | 40.34
Output  | 2.5034e-05 | 5.9446e-05 | 0.00016499 |   0.0 |  1.18
Modify  | 2.1935e-05 | 2.5868e-05 | 4.3392e-05 |   0.0 |  0.51
Other   |            | 0.0003863  |            |       |  7.65

Nlocal:    370.292 ave 375 max 342 min
Histogram: 3 0 0 1 0 0 0 0 0 20
Nghost:    1220.38 ave 1245 max 1132 min
Histogram: 2 1 1 0 0 0 0 0 4 16
Neighs:    7737.04 ave 7984 max 6870 min
Histogram: 2 0 2 0 0 0 0 0 10 10

Total # of neighbors = 185689
Ave neighs/atom = 20.8945
Ave special neighs/atom = 0.00540115
Neighbor list builds = 1
Dangerous builds = 0
run 10
Per MPI rank memory allocation (min/avg/max) = 11.37 | 11.39 | 11.48 Mbytes
c_com[1] c_com[2] c_com[3] 
   25.354085    20.498736    15.846651 
   25.362846      20.5505    15.794003 
Loop time of 0.00511775 on 24 procs for 10 steps with 8887 atoms

Performance: 1688240.537 tau/day, 1953.982 timesteps/s
61.9% CPU use with 24 MPI tasks x no OpenMP threads

MPI task timing breakdown:
Section |  min time  |  avg time  |  max time  |%varavg| %total
---------------------------------------------------------------
Pair    | 0.00088668 | 0.00096402 | 0.0010252  |   0.0 | 18.84
Bond    | 0          | 2.106e-06  | 5.2452e-06 |   0.0 |  0.04
Neigh   | 0.00083113 | 0.0015889  | 0.0017521  |   0.6 | 31.05
Comm    | 0.0015991  | 0.0020894  | 0.0030398  |   0.7 | 40.83
Output  | 2.5988e-05 | 5.6515e-05 | 7.7009e-05 |   0.0 |  1.10
Modify  | 2.0504e-05 | 2.5153e-05 | 4.4346e-05 |   0.0 |  0.49
Other   |            | 0.0003917  |            |       |  7.65

Nlocal:    370.292 ave 375 max 342 min
Histogram: 3 0 0 1 0 0 0 0 0 20
Nghost:    1220.38 ave 1245 max 1132 min
Histogram: 2 1 1 0 0 0 0 0 4 16
Neighs:    7737.04 ave 7984 max 6870 min
Histogram: 2 0 2 0 0 0 0 0 10 10

Total # of neighbors = 185689
Ave neighs/atom = 20.8945
Ave special neighs/atom = 0.00540115
Neighbor list builds = 1
Dangerous builds = 0
run 10
Per MPI rank memory allocation (min/avg/max) = 11.37 | 11.39 | 11.48 Mbytes
c_com[1] c_com[2] c_com[3] 
   25.362846      20.5505    15.794003 
   25.379031    20.595148    15.763159 
Loop time of 0.00509935 on 24 procs for 10 steps with 8887 atoms

Performance: 1694334.841 tau/day, 1961.036 timesteps/s
59.6% CPU use with 24 MPI tasks x no OpenMP threads

MPI task timing breakdown:
Section |  min time  |  avg time  |  max time  |%varavg| %total
---------------------------------------------------------------
Pair    | 0.00086641 | 0.00096292 | 0.0010169  |   0.0 | 18.88
Bond    | 0          | 1.8378e-06 | 5.0068e-06 |   0.0 |  0.04
Neigh   | 0.00078702 | 0.0014166  | 0.0017262  |   0.9 | 27.78
Comm    | 0.0017269  | 0.0022648  | 0.0030577  |   0.8 | 44.41
Output  | 3.0041e-05 | 6.4751e-05 | 0.00016999 |   0.0 |  1.27
Modify  | 2.1696e-05 | 2.5123e-05 | 4.3154e-05 |   0.0 |  0.49
Other   |            | 0.0003633  |            |       |  7.12

Nlocal:    370.292 ave 375 max 342 min
Histogram: 3 0 0 1 0 0 0 0 0 20
Nghost:    1220.38 ave 1245 max 1132 min
Histogram: 2 1 1 0 0 0 0 0 4 16
Neighs:    7737.04 ave 7984 max 6870 min
Histogram: 2 0 2 0 0 0 0 0 10 10

Total # of neighbors = 185689
Ave neighs/atom = 20.8945
Ave special neighs/atom = 0.00540115
Neighbor list builds = 1
Dangerous builds = 0
run 10
Per MPI rank memory allocation (min/avg/max) = 11.37 | 11.39 | 11.48 Mbytes
c_com[1] c_com[2] c_com[3] 
   25.379031    20.595148    15.763159 
   25.403111    20.664066    15.731765 
Loop time of 0.00508429 on 24 procs for 10 steps with 8887 atoms

Performance: 1699353.611 tau/day, 1966.844 timesteps/s
53.3% CPU use with 24 MPI tasks x no OpenMP threads

MPI task timing breakdown:
Section |  min time  |  avg time  |  max time  |%varavg| %total
---------------------------------------------------------------
Pair    | 0.00085711 | 0.00096481 | 0.0010221  |   0.0 | 18.98
Bond    | 0          | 2.0166e-06 | 4.0531e-06 |   0.0 |  0.04
Neigh   | 0.00078607 | 0.0014851  | 0.0017328  |   0.7 | 29.21
Comm    | 0.0017061  | 0.0021895  | 0.0030622  |   0.8 | 43.06
Output  | 2.408e-05  | 5.2969e-05 | 7.2956e-05 |   0.0 |  1.04
Modify  | 2.0266e-05 | 2.5789e-05 | 4.53e-05   |   0.0 |  0.51
Other   |            | 0.0003641  |            |       |  7.16

Nlocal:    370.292 ave 375 max 342 min
Histogram: 3 0 0 1 0 0 0 0 0 20
Nghost:    1220.38 ave 1245 max 1132 min
Histogram: 2 1 1 0 0 0 0 0 4 16
Neighs:    7737.04 ave 7984 max 6870 min
Histogram: 2 0 2 0 0 0 0 0 10 10

Total # of neighbors = 185689
Ave neighs/atom = 20.8945
Ave special neighs/atom = 0.00540115
Neighbor list builds = 1
Dangerous builds = 0
run 10
Per MPI rank memory allocation (min/avg/max) = 11.37 | 11.39 | 11.48 Mbytes
c_com[1] c_com[2] c_com[3] 
   25.403111    20.664066    15.731765 
   25.441048    20.721502    15.693118 
Loop time of 0.00511277 on 24 procs for 10 steps with 8887 atoms

Performance: 1689887.223 tau/day, 1955.888 timesteps/s
61.9% CPU use with 24 MPI tasks x no OpenMP threads

MPI task timing breakdown:
Section |  min time  |  avg time  |  max time  |%varavg| %total
---------------------------------------------------------------
Pair    | 0.00086284 | 0.0009651  | 0.0010209  |   0.0 | 18.88
Bond    | 0          | 1.3411e-06 | 5.0068e-06 |   0.0 |  0.03
Neigh   | 0.00079298 | 0.0014215  | 0.001734   |   0.9 | 27.80
Comm    | 0.0016634  | 0.0022757  | 0.0030861  |   0.8 | 44.51
Output  | 3.0041e-05 | 5.1498e-05 | 6.9141e-05 |   0.0 |  1.01
Modify  | 2.0981e-05 | 2.5392e-05 | 4.1246e-05 |   0.0 |  0.50
Other   |            | 0.0003722  |            |       |  7.28

Nlocal:    370.292 ave 375 max 342 min
Histogram: 3 0 0 1 0 0 0 0 0 20
Nghost:    1220.38 ave 1245 max 1132 min
Histogram: 2 1 1 0 0 0 0 0 4 16
Neighs:    7737.04 ave 7984 max 6870 min
Histogram: 2 0 2 0 0 0 0 0 10 10

Total # of neighbors = 185689
Ave neighs/atom = 20.8945
Ave special neighs/atom = 0.00540115
Neighbor list builds = 1
Dangerous builds = 0
run 10
Per MPI rank memory allocation (min/avg/max) = 11.37 | 11.39 | 11.48 Mbytes
c_com[1] c_com[2] c_com[3] 
   25.441048    20.721502    15.693118 
   25.476411    20.774559    15.653755 
Loop time of 0.00509397 on 24 procs for 10 steps with 8887 atoms

Performance: 1696122.434 tau/day, 1963.105 timesteps/s
61.3% CPU use with 24 MPI tasks x no OpenMP threads

MPI task timing breakdown:
Section |  min time  |  avg time  |  max time  |%varavg| %total
---------------------------------------------------------------
Pair    | 0.00085378 | 0.00096543 | 0.0010293  |   0.0 | 18.95
Bond    | 0          | 1.7186e-06 | 5.4836e-06 |   0.0 |  0.03
Neigh   | 0.00090003 | 0.0015752  | 0.001714   |   0.4 | 30.92
Comm    | 0.0017622  | 0.0021179  | 0.0029819  |   0.5 | 41.58
Output  | 3.0041e-05 | 5.1051e-05 | 7.2956e-05 |   0.0 |  1.00
Modify  | 2.0981e-05 | 2.4796e-05 | 4.2439e-05 |   0.0 |  0.49
Other   |            | 0.0003579  |            |       |  7.03

Nlocal:    370.292 ave 375 max 342 min
Histogram: 3 0 0 1 0 0 0 0 0 20
Nghost:    1220.38 ave 1245 max 1132 min
Histogram: 2 1 1 0 0 0 0 0 4 16
Neighs:    7737.04 ave 7984 max 6870 min
Histogram: 2 0 2 0 0 0 0 0 10 10

Total # of neighbors = 185689
Ave neighs/atom = 20.8945
Ave special neighs/atom = 0.00540115
Neighbor list builds = 1
Dangerous builds = 0
run 10
Per MPI rank memory allocation (min/avg/max) = 11.37 | 11.39 | 11.48 Mbytes
c_com[1] c_com[2] c_com[3] 
   25.476411    20.774559    15.653755 
   25.522421    20.828897    15.608777 
Loop time of 0.00507999 on 24 procs for 10 steps with 8887 atoms

Performance: 1700789.210 tau/day, 1968.506 timesteps/s
54.1% CPU use with 24 MPI tasks x no OpenMP threads

MPI task timing breakdown:
Section |  min time  |  avg time  |  max time  |%varavg| %total
---------------------------------------------------------------
Pair    | 0.00085473 | 0.00096356 | 0.0010228  |   0.0 | 18.97
Bond    | 0          | 1.5795e-06 | 5.0068e-06 |   0.0 |  0.03
Neigh   | 0.00090098 | 0.0015793  | 0.0016201  |   0.4 | 31.09
Comm    | 0.0017726  | 0.0020778  | 0.0029509  |   0.5 | 40.90
Output  | 1.9073e-05 | 4.2856e-05 | 6.1035e-05 |   0.0 |  0.84
Modify  | 2.1696e-05 | 2.5352e-05 | 3.8624e-05 |   0.0 |  0.50
Other   |            | 0.0003896  |            |       |  7.67

Nlocal:    370.292 ave 375 max 341 min
Histogram: 1 2 0 0 1 0 0 0 0 20
Nghost:    1220.38 ave 1245 max 1132 min
Histogram: 2 1 1 0 0 0 0 0 4 16
Neighs:    7737.04 ave 7984 max 6875 min
Histogram: 2 0 2 0 0 0 0 0 10 10

Total # of neighbors = 185689
Ave neighs/atom = 20.8945
Ave special neighs/atom = 0.00540115
Neighbor list builds = 1
Dangerous builds = 0
run 10
Per MPI rank memory allocation (min/avg/max) = 11.37 | 11.39 | 11.48 Mbytes
c_com[1] c_com[2] c_com[3] 
   25.522421    20.828897    15.608777 
   25.545946    20.869307    15.565135 
Loop time of 0.00508508 on 24 procs for 10 steps with 8887 atoms

Performance: 1699088.025 tau/day, 1966.537 timesteps/s
58.2% CPU use with 24 MPI tasks x no OpenMP threads

MPI task timing breakdown:
Section |  min time  |  avg time  |  max time  |%varavg| %total
---------------------------------------------------------------
Pair    | 0.00085831 | 0.00096486 | 0.001029   |   0.0 | 18.97
Bond    | 0          | 2.0067e-06 | 4.7684e-06 |   0.0 |  0.04
Neigh   | 0.00078988 | 0.0015648  | 0.0017159  |   0.4 | 30.77
Comm    | 0.0013256  | 0.0020178  | 0.0030708  |   0.8 | 39.68
Output  | 2.5034e-05 | 6.3737e-05 | 0.00016904 |   0.0 |  1.25
Modify  | 2.1935e-05 | 2.5213e-05 | 4.1485e-05 |   0.0 |  0.50
Other   |            | 0.0004467  |            |       |  8.78

Nlocal:    370.292 ave 375 max 341 min
Histogram: 1 2 0 0 1 0 0 0 0 20
Nghost:    1220.38 ave 1245 max 1132 min
Histogram: 2 1 1 0 0 0 0 0 4 16
Neighs:    7737.04 ave 7984 max 6875 min
Histogram: 2 0 2 0 0 0 0 0 10 10

Total # of neighbors = 185689
Ave neighs/atom = 20.8945
Ave special neighs/atom = 0.00540115
Neighbor list builds = 1
Dangerous builds = 0
run 10
Per MPI rank memory allocation (min/avg/max) = 11.37 | 11.39 | 11.48 Mbytes
c_com[1] c_com[2] c_com[3] 
   25.545946    20.869307    15.565135 
    25.57314    20.888992      15.5299 
Loop time of 0.00509873 on 24 procs for 10 steps with 8887 atoms

Performance: 1694539.512 tau/day, 1961.273 timesteps/s
58.8% CPU use with 24 MPI tasks x no OpenMP threads

MPI task timing breakdown:
Section |  min time  |  avg time  |  max time  |%varavg| %total
---------------------------------------------------------------
Pair    | 0.00085092 | 0.00096338 | 0.0010443  |   0.0 | 18.89
Bond    | 0          | 1.1921e-06 | 3.3379e-06 |   0.0 |  0.02
Neigh   | 0.00078607 | 0.0015844  | 0.0016949  |   0.4 | 31.08
Comm    | 0.00075817 | 0.0019162  | 0.0031731  |   1.2 | 37.58
Output  | 2.5034e-05 | 6.1969e-05 | 0.00016689 |   0.0 |  1.22
Modify  | 2.1696e-05 | 2.5958e-05 | 4.6015e-05 |   0.0 |  0.51
Other   |            | 0.0005456  |            |       | 10.70

Nlocal:    370.292 ave 375 max 341 min
Histogram: 1 2 0 0 1 0 0 0 0 20
Nghost:    1220.38 ave 1245 max 1132 min
Histogram: 2 1 1 0 0 0 0 0 4 16
Neighs:    7737.04 ave 7984 max 6876 min
Histogram: 2 0 2 0 0 0 0 0 10 10

Total # of neighbors = 185689
Ave neighs/atom = 20.8945
Ave special neighs/atom = 0.00540115
Neighbor list builds = 1
Dangerous builds = 0
run 10
Per MPI rank memory allocation (min/avg/max) = 11.37 | 11.39 | 11.48 Mbytes
c_com[1] c_com[2] c_com[3] 
    25.57314    20.888992      15.5299 
   25.607932    20.904619    15.492488 
Loop time of 0.00510273 on 24 procs for 10 steps with 8887 atoms

Performance: 1693210.030 tau/day, 1959.734 timesteps/s
47.4% CPU use with 24 MPI tasks x no OpenMP threads

MPI task timing breakdown:
Section |  min time  |  avg time  |  max time  |%varavg| %total
---------------------------------------------------------------
Pair    | 0.00085998 | 0.00096266 | 0.0010366  |   0.0 | 18.87
Bond    | 0          | 1.3709e-06 | 5.0068e-06 |   0.0 |  0.03
Neigh   | 0.00079107 | 0.0015864  | 0.001704   |   0.4 | 31.09
Comm    | 0.00074983 | 0.0019086  | 0.002984   |   1.2 | 37.40
Output  | 2.5034e-05 | 6.2426e-05 | 0.00016522 |   0.0 |  1.22
Modify  | 2.1696e-05 | 2.5173e-05 | 4.5061e-05 |   0.0 |  0.49
Other   |            | 0.0005562  |            |       | 10.90

Nlocal:    370.292 ave 375 max 342 min
Histogram: 3 0 0 1 0 0 0 0 0 20
Nghost:    1220.38 ave 1245 max 1132 min
Histogram: 2 1 1 0 0 0 0 0 4 16
Neighs:    7737.04 ave 7984 max 6870 min
Histogram: 2 0 2 0 0 0 0 0 10 10

Total # of neighbors = 185689
Ave neighs/atom = 20.8945
Ave special neighs/atom = 0.00540115
Neighbor list builds = 1
Dangerous builds = 0
run 10
Per MPI rank memory allocation (min/avg/max) = 11.37 | 11.39 | 11.48 Mbytes
c_com[1] c_com[2] c_com[3] 
   25.607932    20.904619    15.492488 
   25.638764    20.908206    15.462899 
Loop time of 0.00509668 on 24 procs for 10 steps with 8887 atoms

Performance: 1695219.906 tau/day, 1962.060 timesteps/s
60.5% CPU use with 24 MPI tasks x no OpenMP threads

MPI task timing breakdown:
Section |  min time  |  avg time  |  max time  |%varavg| %total
---------------------------------------------------------------
Pair    | 0.00085592 | 0.00096116 | 0.0010467  |   0.0 | 18.86
Bond    | 0          | 1.212e-06  | 3.0994e-06 |   0.0 |  0.02
Neigh   | 0.00078702 | 0.0014927  | 0.0017252  |   0.8 | 29.29
Comm    | 0.00096226 | 0.0020532  | 0.0031662  |   1.3 | 40.28
Output  | 2.5034e-05 | 6.5019e-05 | 0.000175   |   0.0 |  1.28
Modify  | 1.9789e-05 | 2.4766e-05 | 3.9577e-05 |   0.0 |  0.49
Other   |            | 0.0004986  |            |       |  9.78

Nlocal:    370.292 ave 375 max 341 min
Histogram: 1 2 0 0 1 0 0 0 0 20
Nghost:    1220.38 ave 1245 max 1132 min
Histogram: 2 1 1 0 0 0 0 0 4 16
Neighs:    7737.04 ave 7984 max 6875 min
Histogram: 2 0 2 0 0 0 0 0 10 10

Total # of neighbors = 185689
Ave neighs/atom = 20.8945
Ave special neighs/atom = 0.00540115
Neighbor list builds = 1
Dangerous builds = 0
run 10
Per MPI rank memory allocation (min/avg/max) = 11.37 | 11.39 | 11.48 Mbytes
c_com[1] c_com[2] c_com[3] 
   25.638764    20.908206    15.462899 
   25.672326    20.920789    15.431509 
Loop time of 0.00508465 on 24 procs for 10 steps with 8887 atoms

Performance: 1699230.767 tau/day, 1966.702 timesteps/s
59.0% CPU use with 24 MPI tasks x no OpenMP threads

MPI task timing breakdown:
Section |  min time  |  avg time  |  max time  |%varavg| %total
---------------------------------------------------------------
Pair    | 0.00086284 | 0.00095987 | 0.0010405  |   0.0 | 18.88
Bond    | 0          | 1.9073e-06 | 5.722e-06  |   0.0 |  0.04
Neigh   | 0.00078702 | 0.0015855  | 0.0017071  |   0.4 | 31.18
Comm    | 0.00073338 | 0.0019051  | 0.00316    |   1.3 | 37.47
Output  | 2.5988e-05 | 5.8571e-05 | 0.00016499 |   0.0 |  1.15
Modify  | 2.1219e-05 | 2.5372e-05 | 4.0531e-05 |   0.0 |  0.50
Other   |            | 0.0005484  |            |       | 10.78

Nlocal:    370.292 ave 375 max 339 min
Histogram: 1 1 1 0 1 0 0 0 0 20
Nghost:    1220.38 ave 1245 max 1132 min
Histogram: 2 1 1 0 0 0 0 0 4 16
Neighs:    7737.04 ave 7984 max 6882 min
Histogram: 2 0 2 0 0 0 0 0 10 10

Total # of neighbors = 185689
Ave neighs/atom = 20.8945
Ave special neighs/atom = 0.00540115
Neighbor list builds = 1
Dangerous builds = 0
run 10
Per MPI rank memory allocation (min/avg/max) = 11.37 | 11.39 | 11.48 Mbytes
c_com[1] c_com[2] c_com[3] 
   25.672326    20.920789    15.431509 
   25.714256    20.942268    15.389864 
Loop time of 0.00509189 on 24 procs for 10 steps with 8887 atoms

Performance: 1696817.341 tau/day, 1963.909 timesteps/s
54.8% CPU use with 24 MPI tasks x no OpenMP threads

MPI task timing breakdown:
Section |  min time  |  avg time  |  max time  |%varavg| %total
---------------------------------------------------------------
Pair    | 0.00085735 | 0.00096209 | 0.001035   |   0.0 | 18.89
Bond    | 0          | 1.6987e-06 | 5.2452e-06 |   0.0 |  0.03
Neigh   | 0.00079703 | 0.0014943  | 0.0017281  |   0.8 | 29.35
Comm    | 0.00084352 | 0.0020242  | 0.0030255  |   1.3 | 39.75
Output  | 2.5988e-05 | 6.334e-05  | 0.00016785 |   0.0 |  1.24
Modify  | 2.1696e-05 | 2.566e-05  | 4.0054e-05 |   0.0 |  0.50
Other   |            | 0.0005205  |            |       | 10.22

Nlocal:    370.292 ave 375 max 338 min
Histogram: 1 1 1 0 1 0 0 0 0 20
Nghost:    1220.38 ave 1245 max 1132 min
Histogram: 2 1 1 0 0 0 0 0 4 16
Neighs:    7737.04 ave 7984 max 6887 min
Histogram: 2 0 2 0 0 0 0 0 10 10

Total # of neighbors = 185689
Ave neighs/atom = 20.8945
Ave special neighs/atom = 0.00540115
Neighbor list builds = 1
Dangerous builds = 0
run 10
Per MPI rank memory allocation (min/avg/max) = 11.37 | 11.39 | 11.48 Mbytes
c_com[1] c_com[2] c_com[3] 
   25.714256    20.942268    15.389864 
   25.741214    20.966739     15.34561 
Loop time of 0.00508932 on 24 procs for 10 steps with 8887 atoms

Performance: 1697671.864 tau/day, 1964.898 timesteps/s
57.3% CPU use with 24 MPI tasks x no OpenMP threads

MPI task timing breakdown:
Section |  min time  |  avg time  |  max time  |%varavg| %total
---------------------------------------------------------------
Pair    | 0.0008533  | 0.00095942 | 0.001035   |   0.0 | 18.85
Bond    | 0          | 2.0266e-06 | 5.722e-06  |   0.0 |  0.04
Neigh   | 0.00078702 | 0.0015541  | 0.001698   |   0.6 | 30.54
Comm    | 0.00084257 | 0.0019627  | 0.0031602  |   1.2 | 38.57
Output  | 2.5034e-05 | 6.3409e-05 | 0.0001719  |   0.0 |  1.25
Modify  | 2.1696e-05 | 2.5163e-05 | 3.9339e-05 |   0.0 |  0.49
Other   |            | 0.0005225  |            |       | 10.27

Nlocal:    370.292 ave 375 max 338 min
Histogram: 1 1 1 0 1 0 0 0 0 20
Nghost:    1220.38 ave 1245 max 1132 min
Histogram: 2 1 1 0 0 0 0 0 4 16
Neighs:    7737.04 ave 7984 max 6887 min
Histogram: 2 0 2 0 0 0 0 0 10 10

Total # of neighbors = 185689
Ave neighs/atom = 20.8945
Ave special neighs/atom = 0.00540115
Neighbor list builds = 1
Dangerous builds = 0
run 10
Per MPI rank memory allocation (min/avg/max) = 11.37 | 11.39 | 11.48 Mbytes
c_com[1] c_com[2] c_com[3] 
   25.741214    20.966739     15.34561 
   25.769337    20.983849    15.308448 
Loop time of 0.00509658 on 24 procs for 10 steps with 8887 atoms

Performance: 1695252.948 tau/day, 1962.098 timesteps/s
52.3% CPU use with 24 MPI tasks x no OpenMP threads

MPI task timing breakdown:
Section |  min time  |  avg time  |  max time  |%varavg| %total
---------------------------------------------------------------
Pair    | 0.00085497 | 0.00096238 | 0.001034   |   0.0 | 18.88
Bond    | 0          | 1.9173e-06 | 5.0068e-06 |   0.0 |  0.04
Neigh   | 0.00080299 | 0.0014912  | 0.0017319  |   0.8 | 29.26
Comm    | 0.00083423 | 0.0020292  | 0.0030282  |   1.3 | 39.81
Output  | 2.3127e-05 | 3.9885e-05 | 6.0797e-05 |   0.0 |  0.78
Modify  | 2.1935e-05 | 2.6057e-05 | 4.2915e-05 |   0.0 |  0.51
Other   |            | 0.000546   |            |       | 10.71

Nlocal:    370.292 ave 375 max 338 min
Histogram: 1 1 1 0 1 0 0 0 0 20
Nghost:    1220.38 ave 1245 max 1132 min
Histogram: 2 1 1 0 0 0 0 0 4 16
Neighs:    7737.04 ave 7984 max 6887 min
Histogram: 2 0 2 0 0 0 0 0 10 10

Total # of neighbors = 185689
Ave neighs/atom = 20.8945
Ave special neighs/atom = 0.00540115
Neighbor list builds = 1
Dangerous builds = 0
run 10
Per MPI rank memory allocation (min/avg/max) = 11.37 | 11.39 | 11.48 Mbytes
c_com[1] c_com[2] c_com[3] 
   25.769337    20.983849    15.308448 
   25.804524     21.00856     15.27283 
Loop time of 0.00509592 on 24 procs for 10 steps with 8887 atoms

Performance: 1695474.368 tau/day, 1962.355 timesteps/s
48.2% CPU use with 24 MPI tasks x no OpenMP threads

MPI task timing breakdown:
Section |  min time  |  avg time  |  max time  |%varavg| %total
---------------------------------------------------------------
Pair    | 0.00085783 | 0.00096177 | 0.0010347  |   0.0 | 18.87
Bond    | 0          | 1.3808e-06 | 3.8147e-06 |   0.0 |  0.03
Neigh   | 0.00079203 | 0.0015576  | 0.0016398  |   0.5 | 30.57
Comm    | 0.00075555 | 0.0019369  | 0.0030401  |   1.3 | 38.01
Output  | 2.3842e-05 | 6.2009e-05 | 0.00016618 |   0.0 |  1.22
Modify  | 2.0742e-05 | 2.556e-05  | 3.8624e-05 |   0.0 |  0.50
Other   |            | 0.0005507  |            |       | 10.81

Nlocal:    370.292 ave 375 max 339 min
Histogram: 1 1 1 0 1 0 0 0 0 20
Nghost:    1220.38 ave 1245 max 1132 min
Histogram: 2 1 1 0 0 0 0 0 4 16
Neighs:    7737.04 ave 7984 max 6885 min
Histogram: 2 0 2 0 0 0 0 0 10 10

Total # of neighbors = 185689
Ave neighs/atom = 20.8945
Ave special neighs/atom = 0.00540115
Neighbor list builds = 1
Dangerous builds = 0
run 10
Per MPI rank memory allocation (min/avg/max) = 11.37 | 11.39 | 11.48 Mbytes
c_com[1] c_com[2] c_com[3] 
   25.804524     21.00856     15.27283 
   25.852641    21.037158     15.24236 
Loop time of 0.00511934 on 24 procs for 10 steps with 8887 atoms

Performance: 1687716.371 tau/day, 1953.375 timesteps/s
[...]
c_com[1] c_com[2] c_com[3] 
   26.722122    23.951638    20.561747 
   26.753277    23.938527    20.602297 
Loop time of 0.00514178 on 24 procs for 10 steps with 8887 atoms

Performance: 1680350.389 tau/day, 1944.850 timesteps/s
55.1% CPU use with 24 MPI tasks x no OpenMP threads

MPI task timing breakdown:
Section |  min time  |  avg time  |  max time  |%varavg| %total
---------------------------------------------------------------
Pair    | 0.0008564  | 0.0009666  | 0.0010529  |   0.0 | 18.80
Bond    | 0          | 1.6391e-06 | 3.3379e-06 |   0.0 |  0.03
Neigh   | 0.00079703 | 0.0014822  | 0.001626   |   0.8 | 28.83
Comm    | 0.0020642  | 0.0023066  | 0.0030448  |   0.6 | 44.86
Output  | 1.812e-05  | 3.9111e-05 | 4.9114e-05 |   0.0 |  0.76
Modify  | 2.1696e-05 | 2.563e-05  | 4.5776e-05 |   0.0 |  0.50
Other   |            | 0.00032    |            |       |  6.22

Nlocal:    370.292 ave 385 max 332 min
Histogram: 1 0 2 0 1 0 0 0 19 1
Nghost:    1220.38 ave 1245 max 1132 min
Histogram: 3 0 1 0 0 0 0 0 3 17
Neighs:    7737.04 ave 8005 max 6870 min
Histogram: 2 0 2 0 0 0 0 10 0 10

Total # of neighbors = 185689
Ave neighs/atom = 20.8945
Ave special neighs/atom = 0.00540115
Neighbor list builds = 1
Dangerous builds = 0
run 10
Per MPI rank memory allocation (min/avg/max) = 11.37 | 11.41 | 11.49 Mbytes
c_com[1] c_com[2] c_com[3] 
   26.753277    23.938527    20.602297 
    26.76513    23.934241    20.640438 
Loop time of 0.00515711 on 24 procs for 10 steps with 8887 atoms

Performance: 1675355.935 tau/day, 1939.069 timesteps/s
55.7% CPU use with 24 MPI tasks x no OpenMP threads

MPI task timing breakdown:
Section |  min time  |  avg time  |  max time  |%varavg| %total
---------------------------------------------------------------
Pair    | 0.00085855 | 0.00096536 | 0.0010335  |   0.0 | 18.72
Bond    | 0          | 1.2517e-06 | 4.7684e-06 |   0.0 |  0.02
Neigh   | 0.00091004 | 0.0015839  | 0.001631   |   0.4 | 30.71
Comm    | 0.002073   | 0.0022263  | 0.0028803  |   0.3 | 43.17
Output  | 2.0027e-05 | 3.6945e-05 | 4.9114e-05 |   0.0 |  0.72
Modify  | 1.9312e-05 | 2.5014e-05 | 4.7684e-05 |   0.0 |  0.49
Other   |            | 0.0003183  |            |       |  6.17

Nlocal:    370.292 ave 385 max 332 min
Histogram: 1 0 2 0 1 0 0 0 19 1
Nghost:    1220.38 ave 1245 max 1132 min
Histogram: 3 0 1 0 0 0 0 0 3 17
Neighs:    7737.04 ave 8005 max 6870 min
Histogram: 2 0 2 0 0 0 0 10 0 10

Total # of neighbors = 185689
Ave neighs/atom = 20.8945
Ave special neighs/atom = 0.00540115
Neighbor list builds = 1
Dangerous builds = 0
reset_timestep 2880
run 1
Per MPI rank memory allocation (min/avg/max) = 11.37 | 11.41 | 11.49 Mbytes
c_com[1] c_com[2] c_com[3] 
   26.208902    23.120376    21.449691 
   26.205149     23.12152    21.450608 
Loop time of 0.000404249 on 24 procs for 1 steps with 8887 atoms

Performance: 2137298.497 tau/day, 2473.725 timesteps/s
30.9% CPU use with 24 MPI tasks x no OpenMP threads

MPI task timing breakdown:
Section |  min time  |  avg time  |  max time  |%varavg| %total
---------------------------------------------------------------
Pair    | 9.2983e-05 | 0.0001032  | 0.00010896 |   0.0 | 25.53
Bond    | 0          | 1.7881e-07 | 1.1921e-06 |   0.0 |  0.04
Neigh   | 0          | 0          | 0          |   0.0 |  0.00
Comm    | 7.987e-05  | 0.00020844 | 0.0002501  |   0.0 | 51.56
Output  | 2.0027e-05 | 5.0823e-05 | 0.00018311 |   0.0 | 12.57
Modify  | 1.9073e-06 | 3.0001e-06 | 5.0068e-06 |   0.0 |  0.74
Other   |            | 3.861e-05  |            |       |  9.55

Nlocal:    370.292 ave 383 max 332 min
Histogram: 1 0 2 0 1 0 0 0 19 1
Nghost:    1220.54 ave 1245 max 1132 min
Histogram: 3 0 1 0 0 0 0 0 3 17
Neighs:    7737.04 ave 7994 max 6870 min
Histogram: 2 0 2 0 0 0 0 9 1 10

Total # of neighbors = 185689
Ave neighs/atom = 20.8945
Ave special neighs/atom = 0.00540115
Neighbor list builds = 0
Dangerous builds = 0
reset_timestep 6770
run 1
Per MPI rank memory allocation (min/avg/max) = 11.37 | 11.41 | 11.49 Mbytes
c_com[1] c_com[2] c_com[3] 
   26.105107      20.7913    19.245222 
   26.101872    20.790726    19.246769 
Loop time of 0.000410557 on 24 procs for 1 steps with 8887 atoms

Performance: 2104459.150 tau/day, 2435.717 timesteps/s
30.4% CPU use with 24 MPI tasks x no OpenMP threads

MPI task timing breakdown:
Section |  min time  |  avg time  |  max time  |%varavg| %total
---------------------------------------------------------------
Pair    | 9.203e-05  | 0.00010322 | 0.000108   |   0.0 | 25.14
Bond    | 0          | 2.4835e-07 | 1.1921e-06 |   0.0 |  0.06
Neigh   | 0          | 0          | 0          |   0.0 |  0.00
Comm    | 8.8215e-05 | 0.00020977 | 0.00024223 |   0.0 | 51.09
Output  | 2.0027e-05 | 5.3316e-05 | 0.00019193 |   0.0 | 12.99
Modify  | 1.9073e-06 | 3.2584e-06 | 5.722e-06  |   0.0 |  0.79
Other   |            | 4.075e-05  |            |       |  9.93

Nlocal:    370.292 ave 379 max 338 min
Histogram: 1 2 0 0 1 0 0 0 0 20
Nghost:    1220.54 ave 1245 max 1132 min
Histogram: 2 1 1 0 0 0 0 0 3 17
Neighs:    7737 ave 7984 max 6870 min
Histogram: 2 0 2 0 0 0 0 0 10 10

Total # of neighbors = 185688
Ave neighs/atom = 20.8943
Ave special neighs/atom = 0.00540115
Neighbor list builds = 0
Dangerous builds = 0
reset_timestep 3660
run 1
Per MPI rank memory allocation (min/avg/max) = 11.37 | 11.41 | 11.49 Mbytes
c_com[1] c_com[2] c_com[3] 
   26.530522    21.355659      18.2814 
   26.529364    21.357343    18.283349 
Loop time of 0.000401825 on 24 procs for 1 steps with 8887 atoms

Performance: 2150191.296 tau/day, 2488.647 timesteps/s
51.8% CPU use with 24 MPI tasks x no OpenMP threads

MPI task timing breakdown:
Section |  min time  |  avg time  |  max time  |%varavg| %total
---------------------------------------------------------------
Pair    | 9.203e-05  | 0.00010332 | 0.000108   |   0.0 | 25.71
Bond    | 0          | 2.9802e-07 | 1.1921e-06 |   0.0 |  0.07
Neigh   | 0          | 0          | 0          |   0.0 |  0.00
Comm    | 7.8917e-05 | 0.00018285 | 0.00024891 |   0.0 | 45.50
Output  | 1.8835e-05 | 7.4486e-05 | 0.00017881 |   0.0 | 18.54
Modify  | 1.9073e-06 | 3.0895e-06 | 6.1989e-06 |   0.0 |  0.77
Other   |            | 3.778e-05  |            |       |  9.40

Nlocal:    370.292 ave 375 max 342 min
Histogram: 3 0 0 1 0 0 0 0 0 20
Nghost:    1220.88 ave 1245 max 1132 min
Histogram: 2 1 1 0 0 0 0 0 3 17
Neighs:    7737.04 ave 7984 max 6870 min
Histogram: 2 0 2 0 0 0 0 0 10 10

Total # of neighbors = 185689
Ave neighs/atom = 20.8945
Ave special neighs/atom = 0.00540115
Neighbor list builds = 0
Dangerous builds = 0
reset_timestep 3930
run 1
Per MPI rank memory allocation (min/avg/max) = 11.37 | 11.41 | 11.49 Mbytes
c_com[1] c_com[2] c_com[3] 
   26.589084    23.887661    20.611076 
   26.585933    23.893273    20.607008 
Loop time of 0.000403285 on 24 procs for 1 steps with 8887 atoms

Performance: 2142405.354 tau/day, 2479.636 timesteps/s
51.6% CPU use with 24 MPI tasks x no OpenMP threads

MPI task timing breakdown:
Section |  min time  |  avg time  |  max time  |%varavg| %total
---------------------------------------------------------------
Pair    | 9.203e-05  | 0.00010281 | 0.00010896 |   0.0 | 25.49
Bond    | 0          | 1.5895e-07 | 9.5367e-07 |   0.0 |  0.04
Neigh   | 0          | 0          | 0          |   0.0 |  0.00
Comm    | 6.6996e-05 | 0.00018147 | 0.00025105 |   0.0 | 45.00
Output  | 1.8835e-05 | 7.8231e-05 | 0.00019979 |   0.0 | 19.40
Modify  | 1.9073e-06 | 3.0001e-06 | 6.1989e-06 |   0.0 |  0.74
Other   |            | 3.762e-05  |            |       |  9.33

Nlocal:    370.292 ave 384 max 332 min
Histogram: 1 0 2 0 1 0 0 0 19 1
Nghost:    1220.38 ave 1244 max 1132 min
Histogram: 3 0 1 0 0 0 0 0 3 17
Neighs:    7737.12 ave 8004 max 6870 min
Histogram: 2 0 2 0 0 0 0 10 0 10

Total # of neighbors = 185691
Ave neighs/atom = 20.8947
Ave special neighs/atom = 0.00540115
Neighbor list builds = 0
Dangerous builds = 0
reset_timestep 2710
run 1
Per MPI rank memory allocation (min/avg/max) = 11.37 | 11.41 | 11.49 Mbytes
c_com[1] c_com[2] c_com[3] 
   26.967468    21.461899    20.844487 
   26.961701    21.465037    20.845434 
Loop time of 0.000413845 on 24 procs for 1 steps with 8887 atoms

Performance: 2087738.250 tau/day, 2416.364 timesteps/s
60.4% CPU use with 24 MPI tasks x no OpenMP threads

MPI task timing breakdown:
Section |  min time  |  avg time  |  max time  |%varavg| %total
---------------------------------------------------------------
Pair    | 9.203e-05  | 0.00010355 | 0.00011301 |   0.0 | 25.02
Bond    | 0          | 2.4835e-07 | 1.1921e-06 |   0.0 |  0.06
Neigh   | 0          | 0          | 0          |   0.0 |  0.00
Comm    | 6.9141e-05 | 0.00018935 | 0.00025702 |   0.0 | 45.75
Output  | 1.9789e-05 | 7.9681e-05 | 0.00020695 |   0.0 | 19.25
Modify  | 1.9073e-06 | 3.169e-06  | 5.9605e-06 |   0.0 |  0.77
Other   |            | 3.784e-05  |            |       |  9.14

Nlocal:    370.292 ave 384 max 333 min
Histogram: 1 0 2 0 1 0 0 0 19 1
Nghost:    1220.38 ave 1245 max 1132 min
Histogram: 3 0 1 0 0 0 0 0 4 16
Neighs:    7737.04 ave 7984 max 6870 min
Histogram: 2 0 2 0 0 0 0 0 10 10

Total # of neighbors = 185689
Ave neighs/atom = 20.8945
Ave special neighs/atom = 0.00540115
Neighbor list builds = 0
Dangerous builds = 0
reset_timestep 8860
run 1
Per MPI rank memory allocation (min/avg/max) = 11.37 | 11.41 | 11.49 Mbytes
c_com[1] c_com[2] c_com[3] 
    26.91667    21.321211    19.074757 
   26.913531    21.318135    19.073388 
Loop time of 0.000401318 on 24 procs for 1 steps with 8887 atoms

Performance: 2152905.781 tau/day, 2491.789 timesteps/s
51.9% CPU use with 24 MPI tasks x no OpenMP threads

MPI task timing breakdown:
Section |  min time  |  avg time  |  max time  |%varavg| %total
---------------------------------------------------------------
Pair    | 9.203e-05  | 0.0001028  | 0.00010991 |   0.0 | 25.62
Bond    | 0          | 2.5829e-07 | 1.1921e-06 |   0.0 |  0.06
Neigh   | 0          | 0          | 0          |   0.0 |  0.00
Comm    | 6.9141e-05 | 0.00018207 | 0.0002501  |   0.0 | 45.37
Output  | 1.9073e-05 | 7.7516e-05 | 0.00019693 |   0.0 | 19.32
Modify  | 1.9073e-06 | 2.9703e-06 | 5.9605e-06 |   0.0 |  0.74
Other   |            | 3.57e-05   |            |       |  8.90

Nlocal:    370.292 ave 375 max 342 min
Histogram: 3 0 0 1 0 0 0 0 0 20
Nghost:    1220.38 ave 1245 max 1132 min
Histogram: 3 0 1 0 0 0 0 0 3 17
Neighs:    7737.04 ave 7984 max 6870 min
Histogram: 2 0 2 0 0 0 0 0 10 10

Total # of neighbors = 185689
Ave neighs/atom = 20.8945
Ave special neighs/atom = 0.00540115
Neighbor list builds = 0
Dangerous builds = 0
reset_timestep 8930
run 1
Per MPI rank memory allocation (min/avg/max) = 11.37 | 11.41 | 11.49 Mbytes
c_com[1] c_com[2] c_com[3] 
   26.604904      21.8881    17.697541 
   26.607844    21.883994     17.69958 
Loop time of 0.000408878 on 24 procs for 1 steps with 8887 atoms

Performance: 2113100.118 tau/day, 2445.718 timesteps/s
61.1% CPU use with 24 MPI tasks x no OpenMP threads

MPI task timing breakdown:
Section |  min time  |  avg time  |  max time  |%varavg| %total
---------------------------------------------------------------
Pair    | 9.203e-05  | 0.00010416 | 0.00012684 |   0.0 | 25.47
Bond    | 0          | 2.7816e-07 | 9.5367e-07 |   0.0 |  0.07
Neigh   | 0          | 0          | 0          |   0.0 |  0.00
Comm    | 7.1049e-05 | 0.00018557 | 0.00025511 |   0.0 | 45.38
Output  | 1.8835e-05 | 7.7198e-05 | 0.00020099 |   0.0 | 18.88
Modify  | 1.9073e-06 | 3.0001e-06 | 6.1989e-06 |   0.0 |  0.73
Other   |            | 3.867e-05  |            |       |  9.46

Nlocal:    370.292 ave 375 max 342 min
Histogram: 3 0 0 1 0 0 0 0 0 20
Nghost:    1221.21 ave 1245 max 1132 min
Histogram: 2 1 1 0 0 0 0 0 3 17
Neighs:    7737.04 ave 7984 max 6870 min
Histogram: 2 0 2 0 0 0 0 0 10 10

Total # of neighbors = 185689
Ave neighs/atom = 20.8945
Ave special neighs/atom = 0.00540115
Neighbor list builds = 0
Dangerous builds = 0
reset_timestep 8390
run 1
Per MPI rank memory allocation (min/avg/max) = 11.37 | 11.41 | 11.49 Mbytes
c_com[1] c_com[2] c_com[3] 
   26.576542    21.730537    18.028719 
   26.579609    21.729817    18.027366 
Loop time of 0.000403305 on 24 procs for 1 steps with 8887 atoms

Performance: 2142299.811 tau/day, 2479.514 timesteps/s
41.3% CPU use with 24 MPI tasks x no OpenMP threads

MPI task timing breakdown:
Section |  min time  |  avg time  |  max time  |%varavg| %total
---------------------------------------------------------------
Pair    | 9.203e-05  | 0.00010271 | 0.00010896 |   0.0 | 25.47
Bond    | 0          | 2.5829e-07 | 1.1921e-06 |   0.0 |  0.06
Neigh   | 0          | 0          | 0          |   0.0 |  0.00
Comm    | 5.8889e-05 | 0.00018126 | 0.00025082 |   0.0 | 44.94
Output  | 2.0027e-05 | 7.8052e-05 | 0.00019312 |   0.0 | 19.35
Modify  | 1.9073e-06 | 2.9902e-06 | 5.9605e-06 |   0.0 |  0.74
Other   |            | 3.804e-05  |            |       |  9.43

Nlocal:    370.292 ave 375 max 342 min
Histogram: 3 0 0 1 0 0 0 0 0 20
Nghost:    1220.88 ave 1245 max 1132 min
Histogram: 2 1 1 0 0 0 0 0 3 17
Neighs:    7737.04 ave 7984 max 6870 min
Histogram: 2 0 2 0 0 0 0 0 10 10

Total # of neighbors = 185689
Ave neighs/atom = 20.8945
Ave special neighs/atom = 0.00540115
Neighbor list builds = 0
Dangerous builds = 0
reset_timestep 1330
run 1
Per MPI rank memory allocation (min/avg/max) = 11.37 | 11.41 | 11.49 Mbytes
c_com[1] c_com[2] c_com[3] 
   25.637757     21.14973    18.201942 
   25.638056    21.147519    18.198414 
Loop time of 0.000414123 on 24 procs for 1 steps with 8887 atoms

Performance: 2086335.974 tau/day, 2414.741 timesteps/s
70.4% CPU use with 24 MPI tasks x no OpenMP threads

MPI task timing breakdown:
Section |  min time  |  avg time  |  max time  |%varavg| %total
---------------------------------------------------------------
Pair    | 9.203e-05  | 0.0001045  | 0.00011516 |   0.0 | 25.23
Bond    | 0          | 2.4835e-07 | 1.1921e-06 |   0.0 |  0.06
Neigh   | 0          | 0          | 0          |   0.0 |  0.00
Comm    | 8.2016e-05 | 0.00020955 | 0.0002501  |   0.0 | 50.60
Output  | 2.0027e-05 | 5.73e-05   | 0.00019479 |   0.0 | 13.84
Modify  | 1.9073e-06 | 3.1094e-06 | 6.1989e-06 |   0.0 |  0.75
Other   |            | 3.942e-05  |            |       |  9.52

Nlocal:    370.292 ave 375 max 342 min
Histogram: 3 0 0 1 0 0 0 0 0 20
Nghost:    1220.79 ave 1245 max 1132 min
Histogram: 2 1 1 0 0 0 0 0 3 17
Neighs:    7737.04 ave 7984 max 6870 min
Histogram: 2 0 2 0 0 0 0 0 10 10

Total # of neighbors = 185689
Ave neighs/atom = 20.8945
Ave special neighs/atom = 0.00540115
Neighbor list builds = 0
Dangerous builds = 0
reset_timestep 6760
run 1
Per MPI rank memory allocation (min/avg/max) = 11.37 | 11.41 | 11.49 Mbytes
c_com[1] c_com[2] c_com[3] 
   27.289103    23.257825    17.248003 
    27.29687    23.258824    17.249735 
Loop time of 0.00040411 on 24 procs for 1 steps with 8887 atoms

Performance: 2138034.065 tau/day, 2474.576 timesteps/s
51.6% CPU use with 24 MPI tasks x no OpenMP threads

MPI task timing breakdown:
Section |  min time  |  avg time  |  max time  |%varavg| %total
---------------------------------------------------------------
Pair    | 9.1791e-05 | 0.00010274 | 0.000108   |   0.0 | 25.42
Bond    | 0          | 2.5829e-07 | 1.1921e-06 |   0.0 |  0.06
Neigh   | 0          | 0          | 0          |   0.0 |  0.00
Comm    | 5.8889e-05 | 0.00018221 | 0.00025082 |   0.0 | 45.09
Output  | 1.9073e-05 | 7.7834e-05 | 0.00019908 |   0.0 | 19.26
Modify  | 1.9073e-06 | 3.2187e-06 | 5.0068e-06 |   0.0 |  0.80
Other   |            | 3.785e-05  |            |       |  9.37

Nlocal:    370.292 ave 384 max 333 min
Histogram: 1 0 2 0 1 0 0 0 19 1
Nghost:    1221.04 ave 1245 max 1132 min
Histogram: 2 1 1 0 0 0 0 0 3 17
Neighs:    7737.38 ave 8006 max 6870 min
Histogram: 2 0 2 0 0 0 0 10 0 10

Total # of neighbors = 185697
Ave neighs/atom = 20.8954
Ave special neighs/atom = 0.00540115
Neighbor list builds = 0
Dangerous builds = 0
reset_timestep 6280
run 1
Per MPI rank memory allocation (min/avg/max) = 11.37 | 11.41 | 11.49 Mbytes
c_com[1] c_com[2] c_com[3] 
   26.714812    20.839105    17.948058 
   26.716246    20.839482    17.948529 
Loop time of 0.000404129 on 24 procs for 1 steps with 8887 atoms

Performance: 2137928.953 tau/day, 2474.455 timesteps/s
41.2% CPU use with 24 MPI tasks x no OpenMP threads

MPI task timing breakdown:
Section |  min time  |  avg time  |  max time  |%varavg| %total
---------------------------------------------------------------
Pair    | 9.1791e-05 | 0.00010353 | 0.00010896 |   0.0 | 25.62
Bond    | 0          | 2.4835e-07 | 1.1921e-06 |   0.0 |  0.06
Neigh   | 0          | 0          | 0          |   0.0 |  0.00
Comm    | 6.8188e-05 | 0.00018413 | 0.00025415 |   0.0 | 45.56
Output  | 1.9073e-05 | 7.7327e-05 | 0.00019813 |   0.0 | 19.13
Modify  | 1.9073e-06 | 3.1292e-06 | 5.722e-06  |   0.0 |  0.77
Other   |            | 3.576e-05  |            |       |  8.85

Nlocal:    370.292 ave 375 max 342 min
Histogram: 3 0 0 1 0 0 0 0 0 20
Nghost:    1220.96 ave 1245 max 1132 min
Histogram: 2 1 1 0 0 0 0 0 3 17
Neighs:    7737.04 ave 7984 max 6870 min
Histogram: 2 0 2 0 0 0 0 0 10 10

Total # of neighbors = 185689
Ave neighs/atom = 20.8945
Ave special neighs/atom = 0.00540115
Neighbor list builds = 0
Dangerous builds = 0
reset_timestep 7910
run 1
Per MPI rank memory allocation (min/avg/max) = 11.37 | 11.41 | 11.49 Mbytes
c_com[1] c_com[2] c_com[3] 
   26.371832    22.994133    16.818612 
   26.366663    22.998043    16.819296 
Loop time of 0.000404825 on 24 procs for 1 steps with 8887 atoms

Performance: 2134256.527 tau/day, 2470.204 timesteps/s
41.2% CPU use with 24 MPI tasks x no OpenMP threads

MPI task timing breakdown:
Section |  min time  |  avg time  |  max time  |%varavg| %total
---------------------------------------------------------------
Pair    | 9.1076e-05 | 0.00010272 | 0.00010896 |   0.0 | 25.37
Bond    | 0          | 2.4835e-07 | 1.1921e-06 |   0.0 |  0.06
Neigh   | 0          | 0          | 0          |   0.0 |  0.00
Comm    | 7.1049e-05 | 0.00018218 | 0.00025296 |   0.0 | 45.00
Output  | 1.9073e-05 | 7.9095e-05 | 0.00019598 |   0.0 | 19.54
Modify  | 1.9073e-06 | 2.8412e-06 | 4.7684e-06 |   0.0 |  0.70
Other   |            | 3.774e-05  |            |       |  9.32

Nlocal:    370.292 ave 384 max 333 min
Histogram: 1 0 2 0 1 0 0 0 19 1
Nghost:    1220.96 ave 1245 max 1132 min
Histogram: 2 1 1 0 0 0 0 0 3 17
Neighs:    7737.04 ave 8001 max 6870 min
Histogram: 2 0 2 0 0 0 0 10 0 10

Total # of neighbors = 185689
Ave neighs/atom = 20.8945
Ave special neighs/atom = 0.00540115
Neighbor list builds = 0
Dangerous builds = 0
reset_timestep 4620
run 1
Per MPI rank memory allocation (min/avg/max) = 11.37 | 11.41 | 11.49 Mbytes
c_com[1] c_com[2] c_com[3] 
   26.402123    20.201808    19.457814 
   26.399922    20.198428    19.453848 
Loop time of 0.000405699 on 24 procs for 1 steps with 8887 atoms

Performance: 2129657.625 tau/day, 2464.882 timesteps/s
71.9% CPU use with 24 MPI tasks x no OpenMP threads

MPI task timing breakdown:
Section |  min time  |  avg time  |  max time  |%varavg| %total
---------------------------------------------------------------
Pair    | 9.203e-05  | 0.00010335 | 0.00010896 |   0.0 | 25.48
Bond    | 0          | 2.0862e-07 | 1.1921e-06 |   0.0 |  0.05
Neigh   | 0          | 0          | 0          |   0.0 |  0.00
Comm    | 6.5088e-05 | 0.00018482 | 0.00025392 |   0.0 | 45.56
Output  | 1.9073e-05 | 7.7416e-05 | 0.00019908 |   0.0 | 19.08
Modify  | 1.9073e-06 | 3.2584e-06 | 5.9605e-06 |   0.0 |  0.80
Other   |            | 3.664e-05  |            |       |  9.03

Nlocal:    370.292 ave 378 max 339 min
Histogram: 1 2 0 0 1 0 0 0 0 20
Nghost:    1220.46 ave 1245 max 1132 min
Histogram: 3 0 1 0 0 0 0 0 3 17
Neighs:    7737.04 ave 7984 max 6870 min
Histogram: 2 0 2 0 0 0 0 0 10 10

Total # of neighbors = 185689
Ave neighs/atom = 20.8945
Ave special neighs/atom = 0.00540115
Neighbor list builds = 0
Dangerous builds = 0
