LAMMPS (31 Mar 2017)
Reading data file ...
  orthogonal box = (0 0 0) to (60 30 30)
  1 by 4 by 6 MPI processor grid
  reading atoms ...
  10 atoms
  scanning bonds ...
  1 = max bonds/atom
  reading bonds ...
  9 bonds
Finding 1-2 1-3 1-4 neighbors ...
  special bond factors lj:   0          0          0         
  special bond factors coul: 0          0          0         
  2 = max # of 1-2 neighbors
  2 = max # of 1-3 neighbors
  4 = max # of 1-4 neighbors
  6 = max # of special neighbors
10 atoms in group polymer
Neighbor list info ...
  update every 1 steps, delay 0 steps, check yes
  max neighbors/atom: 200000, page size: 2000000
  master list distance cutoff = 3.3
  ghost atom cutoff = 3.3
  binsize = 1.65, bins = 37 19 19
  1 neighbor lists, perpetual/occasional/extra = 1 0 0
  (1) pair lj/cut, perpetual
      attributes: half, newton on
      pair build: half/bin/newton
      stencil: half/bin/3d/newton
      bin: standard
Setting up Verlet run ...
  Unit style    : lj
  Current step  : 0
  Time step     : 0.01
Per MPI rank memory allocation (min/avg/max) = 11.51 | 11.52 | 11.75 Mbytes
Step Temp E_pair E_mol TotEng Press 
       0            1            0         0.45          1.8 5.5555556e-05 
    1000   0.55999984   -3.6857402   0.25898324   -2.6707572 -5.6200512e-05 
    2000   0.94322446   -4.5328705   0.42539756   -2.8341199 -7.7158282e-05 
    3000    1.8318107   -2.8769054   0.20109625  -0.20286461 0.00022463852 
    4000    1.1988282   -3.7744802   0.17148251   -1.9845795 0.00039584609 
    5000   0.99877578   -3.4332903    0.3349623   -1.7499807 0.0001594945 
    6000    1.1338486   -3.5046094   0.86909019   -1.1048236 6.4769888e-05 
    7000    1.0209714   -3.8645254   0.37091791   -2.1152962 0.00047504144 
    8000    1.5218201   -4.3420341   0.53990138   -1.7476755 -0.00016040012 
    9000   0.84242565   -2.8233371   0.25706203   -1.4290005 0.00025852301 
   10000   0.95367737   -3.6215614   0.26104727   -2.0730497 0.00041596371 
Loop time of 0.304091 on 24 procs for 10000 steps with 10 atoms

Performance: 28412540.454 tau/day, 32884.885 timesteps/s
37.1% CPU use with 24 MPI tasks x no OpenMP threads

MPI task timing breakdown:
Section |  min time  |  avg time  |  max time  |%varavg| %total
---------------------------------------------------------------
Pair    | 0.0006783  | 0.0010256  | 0.0035026  |   1.9 |  0.34
Bond    | 0.00055361 | 0.00073889 | 0.001627   |   0.0 |  0.24
Neigh   | 0.028911   | 0.037353   | 0.044333   |   1.8 | 12.28
Comm    | 0.061296   | 0.08399    | 0.19041    |  11.5 | 27.62
Output  | 0.00084066 | 0.00095404 | 0.001003   |   0.0 |  0.31
Modify  | 0.0018585  | 0.0026541  | 0.0060794  |   1.9 |  0.87
Other   |            | 0.1774     |            |       | 58.33

Nlocal:    0.416667 ave 6 max 0 min
Histogram: 22 0 0 0 0 0 1 0 0 1
Nghost:    2.08333 ave 10 max 0 min
Histogram: 18 0 0 0 1 0 1 0 0 4
Neighs:    0.875 ave 11 max 0 min
Histogram: 22 0 0 0 0 0 0 0 0 2

Total # of neighbors = 21
Ave neighs/atom = 2.1
Ave special neighs/atom = 4.8
Neighbor list builds = 1650
Dangerous builds = 0
Setting up Verlet run ...
  Unit style    : lj
  Current step  : 0
  Time step     : 0.01
Per MPI rank memory allocation (min/avg/max) = 11.88 | 11.94 | 12.12 Mbytes
Step Temp E_pair E_mol TotEng Press 
       0   0.95367737   -3.6215614   0.26104727   -2.0730497 0.00041596371 
    1000    1.5055626   -4.6076898   0.36323669   -2.2119437 1.6067989e-05 
    2000    1.0246823   -4.2388097   0.20022699   -2.6552616 0.0010763762 
    3000   0.94093316   -3.4823387   0.66768593    -1.544393 -6.4007303e-05 
    4000     1.220039   -4.1214144   0.72931517   -1.7450467 -0.00040580627 
    5000    1.0287868   -3.6864907   0.55561435   -1.7420142 -0.000377395 
Loop time of 0.135207 on 24 procs for 5000 steps with 10 atoms

Performance: 31951034.892 tau/day, 36980.364 timesteps/s
42.9% CPU use with 24 MPI tasks x no OpenMP threads

MPI task timing breakdown:
Section |  min time  |  avg time  |  max time  |%varavg| %total
---------------------------------------------------------------
Pair    | 0.00028181 | 0.00044833 | 0.0021245  |   0.0 |  0.33
Bond    | 0.00026536 | 0.00034888 | 0.00094056 |   0.0 |  0.26
Neigh   | 0.010617   | 0.017846   | 0.024309   |   2.4 | 13.20
Comm    | 0.018099   | 0.031884   | 0.074341   |   9.4 | 23.58
Output  | 0.00033498 | 0.00038416 | 0.00043821 |   0.0 |  0.28
Modify  | 0.00079489 | 0.0011187  | 0.0034986  |   1.9 |  0.83
Other   |            | 0.08318    |            |       | 61.52

Nlocal:    0.416667 ave 10 max 0 min
Histogram: 23 0 0 0 0 0 0 0 0 1
Nghost:    1.91667 ave 10 max 0 min
Histogram: 19 0 0 0 0 0 0 0 2 3
Neighs:    0.875 ave 21 max 0 min
Histogram: 23 0 0 0 0 0 0 0 0 1

Total # of neighbors = 21
Ave neighs/atom = 2.1
Ave special neighs/atom = 4.8
Neighbor list builds = 800
Dangerous builds = 0
Setting up Verlet run ...
  Unit style    : lj
  Current step  : 5000
  Time step     : 0.01
Per MPI rank memory allocation (min/avg/max) = 11.9 | 12.39 | 13.14 Mbytes
c_g c_msd[4] c_com[1] 
  0.83612443    6.8401108    17.378562 
  0.81090035    6.6037323    17.385243 
   0.7852547    6.3827785    17.393523 
  0.75371534    6.2505166    17.406581 
  0.79791488    6.2705609    17.414251 
  0.81271449    6.2414444    17.423062 
   0.8104991     6.165048    17.434781 
  0.79293654    6.0581223    17.456799 
  0.78205441    6.0003354    17.473343 
  0.76806507    5.9933751    17.478071 
   0.7818813    6.1305955    17.495664 
  0.81139742    6.3177747    17.522067 
  0.77957146    6.4019652    17.546961 
   0.7130312    6.4930727    17.575389 
     0.75126    6.8074254    17.602098 
  0.77799439    7.0365417    17.622757 
  0.76731634    7.0747533    17.619822 
   0.8113992    7.1966446    17.626393 
  0.83503416    7.3176717     17.65211 
  0.84879777    7.5631382    17.707261 
  0.78802641    7.7581178    17.773968 
  0.76484992     8.006285    17.845875 
  0.69118007    8.1665784    17.914411 
  0.67317368    8.3903202    17.985244 
  0.68936227    8.6782912    18.080442 
  0.67961201    8.9014384    18.176157 
  0.67931433    9.0988142    18.279097 
  0.70310809    9.3497981    18.377573 
  0.71978242     9.643053    18.467776 
  0.74951606    10.019755    18.557572 
  0.74557959     10.40029    18.649791 
  0.77032635    10.813681    18.727689 
  0.80500344    11.151732    18.792139 
  0.77187067     11.33134     18.84004 
   0.7453599    11.562877    18.885136 
  0.75911736    11.937434    18.938805 
  0.77401722    12.230697    18.984367 
  0.77179145     12.51191     19.02952 
  0.74903474    12.625416    19.055248 
  0.71317772    12.687695    19.076241 
  0.75861683     12.91626    19.103213 
  0.77663608    13.066677     19.12615 
  0.75940237    13.174016    19.155051 
  0.70262052     13.32123    19.182929 
   0.6924845    13.406535    19.205566 
  0.73245694    13.476135    19.221921 
   0.7369099    13.560391    19.234275 
  0.72029564    13.590827    19.247567 
  0.76277385    13.559355    19.243472 
  0.78551173    13.388928    19.224501 
  0.80127359    13.092412     19.18811 
  0.77570652    12.652888    19.138728 
  0.75234208    12.377213    19.099106 
  0.82303119    12.259901    19.062747 
  0.86161779    12.212117      19.0387 
  0.87580481    12.126926    19.012652 
  0.91235811    12.131132    18.980559 
  0.94190449    12.211281      18.9502 
  0.95524252    12.363821    18.934353 
  0.97430276    12.393777    18.913204 
   1.0232101    12.533391    18.901523 
   1.1010539    12.755435    18.896481 
   1.1309793    12.837275    18.880854 
   1.0860752    12.788726    18.867423 
   1.0632217    12.682452     18.84146 
   1.0839295    12.694484    18.822966 
   1.0742517     12.75539    18.818959 
   1.0093837    12.765742    18.822476 
  0.96471983    12.909111    18.836163 
  0.92099234    12.982021    18.845558 
  0.93412723    13.325842    18.863544 
  0.91129661    13.512156    18.874656 
  0.88863758    13.637468     18.87692 
    0.856898    13.812346    18.900317 
  0.84144887    14.002303    18.914618 
  0.86134454    14.149701    18.916168 
  0.83625833    14.198845    18.918525 
  0.80292198    14.210963    18.925059 
  0.80660169    14.450787    18.923697 
  0.82803476    14.707504     18.93177 
  0.83308434    14.859347    18.934349 
  0.85638865    15.075692    18.943423 
  0.86615165    15.345136    18.967069 
  0.84045543    15.520967    19.008492 
  0.82426551    15.754901    19.052471 
  0.77700048    15.891217    19.094857 
  0.72590496    16.037056     19.13985 
  0.73005914    16.256621    19.181175 
  0.73608082    16.370465    19.205622 
  0.74043656    16.363108    19.217162 
  0.69909848    16.217404    19.215218 
  0.73144278    16.140991    19.203414 
  0.74314198    15.996926     19.19564 
  0.72841178    15.775602    19.182265 
  0.72975479    15.566023    19.168734 
  0.71906331    15.393991    19.157014 
  0.72990914     15.22651    19.132137 
  0.74591018    15.093005    19.123849 
  0.76405039    14.921365     19.10839 
  0.74208462    14.695582    19.089217 
  0.71812904    14.587071    19.082762 
   0.6965142    14.412638     19.05235 
   0.7135721    14.462866    19.030662 
  0.74468011    14.686689    19.036178 
  0.75331276    14.916096    19.041197 
  0.72414731    15.001873    19.032486 
  0.72101216     15.12555    19.027617 
  0.72606607    15.415583    19.037325 
  0.72855929    15.722699    19.050872 
  0.74736212     16.07873    19.059234 
  0.76935111    16.473135    19.066647 
  0.76414691     16.79652     19.08242 
  0.76590945     17.00691    19.074572 
   0.7780393    17.241926    19.051724 
  0.75006659    17.407349    19.022968 
  0.78949752    17.817457    19.007614 
  0.75818737    18.107951    18.991005 
  0.79441064    18.677093    18.983777 
  0.81745917    19.191083    18.971547 
  0.82716211    19.598709     18.95938 
   0.8153114    19.971215    18.947871 
  0.81915846    20.358829    18.936534 
  0.79198507    20.709169    18.938553 
  0.77718811    21.048865    18.945811 
   0.7968808    21.495321    18.964025 
  0.79994998    21.813232    18.974991 
  0.75746789    22.015708    18.971523 
   0.8095216    22.290779    18.959149 
  0.82486254    22.510592    18.963042 
  0.78160078    22.610048    18.964455 
  0.73611354    22.474114    18.961375 
  0.73727894    22.481959    18.954177 
  0.70036689    22.191681    18.922281 
  0.70753802    21.888787     18.87522 
  0.67969383    21.574762    18.839321 
   0.6963456    21.170862    18.796073 
  0.68583449    20.671784    18.738585 
  0.68560494    20.252791    18.704374 
  0.72521665    20.046473    18.680448 
  0.74446468    19.835774    18.661772 
  0.80267458    19.680967     18.65402 
  0.83471119    19.682075    18.668083 
  0.84742341    19.739972    18.685059 
  0.83119555    19.876499    18.707143 
  0.81918974    20.109456    18.727801 
  0.80635531    20.271497    18.738175 
  0.78941905    20.332714    18.737256 
  0.76692677    20.646849    18.744753 
  0.76019623     20.92494    18.755474 
  0.75945534    21.078312    18.746717 
  0.73873524    21.338148    18.755652 
  0.75647272    21.568109     18.76573 
  0.71768305    21.758081    18.780642 
  0.70127976    21.856208     18.81154 
  0.70725448    21.894702     18.85746 
  0.68814677    21.993593    18.930198 
  0.65481877    21.974858    19.005633 
   0.6915647    22.113613     19.06202 
  0.70873485    22.192555    19.105778 
  0.67471845    22.142554    19.156674 
  0.68791794    22.384512    19.239789 
  0.69760366    22.764774    19.324608 
  0.71543729    23.092563    19.395847 
  0.70175488    23.501781    19.478767 
  0.71658114    23.909146    19.556362 
  0.73963023    24.242055     19.62594 
  0.71257695    24.415542     19.69274 
  0.70853845    24.564242    19.759508 
  0.69254691    24.688429    19.821407 
  0.69456498     24.87432    19.886493 
  0.70814335    25.022406    19.942937 
  0.67271091    25.185457    20.007929 
  0.69959353    25.568961    20.071838 
  0.72170381    25.797267    20.124443 
  0.69377288    25.771501    20.169378 
  0.70815976    25.611973    20.202417 
  0.73162249    25.441821    20.228392 
   0.7177276    25.294854     20.25136 
  0.75212873    25.331231    20.284676 
  0.74692984    25.389925    20.326219 
  0.71350884    25.384682     20.36471 
  0.76522378    25.500918    20.404015 
  0.79579736    25.634463    20.436598 
  0.81754126    25.910155    20.476029 
  0.80239308    26.077663    20.504919 
  0.75032339     26.15415    20.521335 
  0.74316937    26.383366    20.546506 
  0.68579103    26.612397     20.55629 
  0.70502112    26.830794    20.550604 
  0.71176065    27.011923    20.543984 
  0.73314637    27.284165    20.549521 
  0.73384352      27.6039    20.560527 
  0.71157116    27.776471    20.564375 
  0.68561152    27.822929    20.551133 
  0.71163361    28.098894    20.555064 
  0.71835335    28.467737    20.577744 
  0.72823569    28.726424    20.584768 
  0.69197846    28.932789    20.580373 
  0.73947737     29.04872    20.565945 
  0.77362246    29.006326     20.53712 
  0.73920314    28.924104    20.514755 
  0.75405919    29.000129    20.507335 
   0.6991972    29.014993    20.501889 
  0.67363726     28.94558    20.481242 
  0.67784598    28.709099    20.446174 
  0.68701986    28.389132    20.407968 
  0.73068898    28.081324    20.368042 
  0.71614856    27.829892    20.338648 
  0.72308787    27.727139    20.312753 
  0.73237727    27.744405    20.304603 
   0.7424867     27.43791    20.287883 
  0.73618243    27.105838     20.27587 
  0.69209015    26.529173    20.252753 
  0.69972532    26.049382    20.233422 
  0.67892704    25.341808    20.193222 
  0.70922378    24.571589    20.132393 
  0.72263686    23.794078     20.06857 
  0.74239604    22.943722    19.998454 
  0.74738039    22.189142    19.939243 
    0.726969    21.606088    19.896836 
  0.70659415    21.114176    19.865153 
  0.73915964    20.693093    19.839116 
  0.73689722    20.370595    19.820552 
  0.71753188    19.950186     19.78968 
  0.72061909    19.642498    19.767668 
  0.70607172    19.332404    19.740616 
  0.71230679    19.102517    19.725894 
  0.69886033    18.925441    19.714922 
  0.69753754     18.89238    19.710778 
  0.69414422    19.095233    19.721659 
  0.73581689    19.351271    19.728017 
  0.72361716    19.648157    19.748828 
  0.71278319    19.989313    19.770096 
  0.71084741    20.227266    19.776775 
  0.69958914    20.424726    19.778638 
  0.69276331    20.527615    19.752629 
  0.69316447    20.725033    19.732405 
  0.70171354    20.960686    19.712992 
  0.72293363    21.214767    19.682255 
  0.73404024    21.443508    19.652911 
  0.73875426    21.622981    19.634459 
  0.67821028    21.606117    19.614048 
  0.70026996    21.785685    19.604006 
  0.72201369     22.09179    19.618205 
  0.69653385    22.321818    19.639041 
  0.70423335       22.754    19.673349 
   0.7173896    23.214377    19.716101 
  0.75181588    23.886516     19.77886 
  0.75988086    24.463931    19.836467 
   0.7650193    25.099677    19.907253 
  0.76240407    25.745668    19.986862 
  0.70499399    26.125802    20.048616 
  0.72150435     26.71158    20.108323 
  0.74832166    27.211327    20.157012 
  0.79202047    27.702143    20.197281 
  0.81050028    28.223528    20.232009 
  0.82229431    28.494865    20.255127 
  0.80997247    28.635894    20.286359 
  0.85764064     28.86863    20.320385 
  0.87652382    29.038512    20.356308 
  0.89631423    29.220009    20.390673 
  0.88834861    29.446581    20.433139 
  0.88032019    29.685476    20.465067 
  0.86022495    29.867183    20.486557 
  0.83891927    30.100702    20.498974 
  0.81225763    30.271614    20.513395 
  0.76191887    30.448868    20.524684 
  0.77520743    30.841092    20.554248 
  0.76542291     31.30959    20.606169 
  0.76004908    31.781019    20.657881 
  0.77197195      32.5146    20.721176 
  0.82881576     33.26507    20.774521 
  0.86149085    34.131096    20.834129 
  0.85673284    34.915421    20.910888 
  0.84946692    35.584774    20.982043 
  0.85328242    36.283192    21.049753 
   0.8765022    36.918084    21.117801 
   0.8428981    37.283473    21.171684 
  0.82831098    37.695159    21.220143 
  0.82928819    38.186806    21.265243 
   0.8428289    38.744382    21.316002 
  0.85650143    39.210077    21.345578 
  0.84317082    39.780811    21.375833 
  0.80552013    40.372861    21.408075 
  0.78279583    40.763282    21.415985 
  0.80075139    41.094681     21.42349 
  0.78324525    41.473517    21.440112 
  0.74721033    42.117142    21.478417 
  0.77217163    43.016092    21.532827 
  0.80722088    43.852156    21.581322 
  0.81118199    44.602174    21.619453 
  0.86528994    45.397757     21.65356 
  0.85824085    46.028377    21.685266 
  0.83323221    46.620504    21.722769 
  0.78495473    47.392811    21.759939 
  0.82998337     48.28629    21.790845 
    0.834738    49.037402     21.81751 
  0.82988052     49.74644    21.846613 
  0.81014445    50.352957      21.8741 
  0.78231006    50.874809    21.894359 
  0.74825991    51.565638    21.922196 
  0.72639955    52.481243    21.967785 
  0.75718372    53.365924    22.007456 
  0.79072573    54.276838    22.049237 
  0.81434472    55.102872    22.086336 
  0.75726124    55.946282    22.122737 
  0.77399586    57.208165    22.181711 
  0.77999294    58.227382    22.234188 
  0.77759498    59.121707    22.282657 
  0.79230263    59.887624    22.327989 
  0.75849671    60.519508     22.37571 
  0.73927913    60.940615    22.403799 
  0.74019045    61.513223    22.442308 
  0.75818549    61.976382    22.478724 
   0.7974585    62.479244     22.50836 
  0.76167793    62.758857    22.531491 
   0.7824766    63.136183    22.555099 
  0.81317314    63.684145    22.586144 
  0.83431915    63.935081    22.600458 
   0.8929995    64.246142    22.608194 
   0.9052398    64.839087     22.63217 
  0.90864884    65.338298    22.644764 
  0.93311758    65.927108    22.657318 
  0.93078084    66.462006     22.66587 
  0.87072187    66.638296    22.661708 
  0.86652129    66.997816    22.658525 
  0.85817742      67.3017    22.648194 
  0.82035744    67.094111    22.618307 
  0.85476789    66.907381    22.590066 
  0.85167069    66.563473    22.563877 
  0.82776218    66.269167    22.544141 
  0.80913065    65.796001    22.526937 
  0.81486575    65.284903    22.507916 
  0.81188502    64.706407    22.487912 
  0.78337211    64.371332     22.49121 
  0.78957141    64.191882    22.493785 
  0.75964295    63.777395    22.471845 
  0.79634168    63.209538    22.427018 
  0.78348636    62.383064    22.375066 
  0.76047624    61.630921    22.323639 
  0.73403122    60.781131    22.269922 
  0.74299445    59.979502    22.212633 
   0.7419038    59.278633    22.164469 
  0.76826399    58.699025    22.111913 
  0.82582399    58.178324    22.052736 
  0.86031896    58.007168    22.017469 
  0.80915377    57.707982    21.994391 
  0.74275836    57.375128    21.970299 
  0.80841163    57.511916    21.954987 
  0.83882181    57.746609     21.95109 
  0.85036441    57.957679    21.950811 
  0.81116511     58.18966    21.962098 
  0.81563852    58.381585     21.96841 
  0.79932504    58.390157    21.970998 
  0.84284764    58.447812    21.970547 
  0.82007078    58.481756    21.961309 
   0.7816196    58.509361    21.944303 
  0.73131627    58.511038    21.927269 
  0.73050956    58.358036    21.904502 
  0.75761917    58.196009    21.889044 
  0.74133045    57.981222    21.888686 
  0.71649293    57.733713    21.878176 
  0.68571269    57.587717    21.862165 
  0.67309079    57.512361    21.853852 
  0.67547353    57.526884    21.854133 
  0.72823547    57.916967    21.871689 
  0.72727785    58.357311    21.892213 
  0.71814841    58.692048    21.897154 
  0.74529003    58.930296     21.89771 
  0.74543728    59.068385    21.901983 
  0.70540574    59.283449     21.92572 
  0.70808872    59.583767    21.950345 
  0.71552506     59.86875    21.971988 
  0.69945723    59.948007    21.976139 
  0.69870607    60.131727    21.983808 
  0.72178725    60.553204    21.999619 
  0.69827994    60.670954    22.004627 
  0.69971012    60.837208    22.011893 
  0.67534386    60.834353    22.014764 
  0.73067568    60.806143    22.012919 
  0.74126394    60.855575    22.033848 
  0.73016619    60.909125    22.058598 
   0.7520677    60.992028    22.086664 
  0.75163117    61.041981    22.115376 
  0.76042837    61.271289    22.144399 
  0.76776205    61.628399    22.178947 
   0.7757074    62.182606    22.232959 
   0.8157438    62.801964    22.292049 
  0.80587984    63.568043    22.361973 
  0.84338416    64.953814    22.452216 
  0.82367691    66.131844    22.529807 
  0.77444883    67.172837    22.602492 
  0.74177601     68.36842    22.690828 
  0.70259894    69.537841    22.783692 
  0.70309832    70.407377     22.85933 
  0.66649284    70.987291    22.927118 
  0.70158115    71.797571    22.999878 
  0.70658214    72.614057    23.071096 
  0.73216397    73.442457    23.131911 
  0.69823375    74.361499    23.191056 
  0.72021572    75.416525    23.261176 
  0.75872163    76.534182    23.335354 
  0.79067827    77.342464    23.394556 
  0.80614232     78.14834    23.450813 
  0.82777903    78.676909    23.491919 
   0.8265071    78.857832    23.522592 
  0.86310737     78.86784    23.538114 
  0.84671285    79.019236    23.568064 
  0.87830558    79.143867    23.593891 
  0.86404835    79.430907    23.622043 
  0.85848532    80.069421    23.672555 
  0.86855164    80.813129    23.732474 
  0.82891904    81.515968    23.784926 
  0.80644495    82.123976     23.83042 
  0.80592504    82.387822    23.856415 
   0.7911027    82.650492    23.868488 
   0.7750036    82.761574    23.869458 
  0.77924453    82.584181    23.861048 
  0.75877103     82.42061    23.849318 
   0.7689295    82.473169     23.85441 
  0.76805412     82.21272    23.844692 
  0.69785831    82.057736    23.847782 
  0.71784626    81.931061    23.849967 
   0.7204162    81.662447    23.848109 
  0.73771572     81.40986     23.84186 
  0.75060159    81.095774    23.832241 
  0.77338599    80.770903    23.820659 
   0.7775436    80.274456    23.804746 
  0.77658004    79.995103    23.789633 
  0.80338428    79.989932    23.788813 
  0.79245332    80.127277    23.792218 
  0.79497985    80.220435    23.804778 
  0.79251108    80.497367    23.820943 
  0.77966036    80.930256    23.840318 
  0.79123849     81.13156    23.845181 
  0.78407565    81.324911    23.855258 
  0.80017793    81.696545    23.874458 
   0.7656591    81.945675    23.893585 
  0.77047352    81.910813    23.885169 
  0.76371233      82.0303    23.878275 
  0.76216072    81.865894    23.851482 
  0.72809827    81.407174    23.806586 
  0.77380024    80.893361    23.754545 
  0.75302588    80.498076     23.71052 
   0.7113052    80.552342    23.694532 
  0.70750534    80.913451    23.695643 
  0.74704402    81.459188     23.70575 
  0.77493463    82.246672    23.727014 
  0.78093417    82.906601    23.748708 
  0.81836595    83.619477    23.764355 
  0.79830119    84.321826    23.786549 
   0.8158422    85.116391    23.806423 
  0.81209285    85.689656    23.819554 
  0.77310382     86.05947    23.819411 
  0.81316545    86.600197    23.814981 
  0.83579178    86.874936    23.801328 
  0.83309828    86.904299    23.777996 
  0.88288492    87.363291    23.761718 
  0.91778967    87.709511    23.749205 
  0.85947953    87.739114    23.740506 
  0.84743693    87.654629    23.719158 
  0.85166207     88.07292    23.721056 
   0.8729387    88.658721    23.732613 
  0.86398498    89.161022    23.738838 
  0.85505095    89.664612    23.736006 
  0.85135547    89.662491    23.705221 
  0.83602326     89.37671    23.659583 
  0.80307181    89.189134    23.619199 
  0.77782034    89.191938    23.589382 
  0.78609587    89.424225    23.567891 
  0.80895295    89.365459     23.51848 
  0.78880789    88.930547    23.460803 
  0.76995322    88.534222    23.403669 
  0.74979292    88.110774    23.349869 
  0.78196359     87.99829    23.305028 
  0.77752775     88.00878    23.270054 
  0.76725241    87.539867    23.227987 
  0.73709042    86.814545     23.17004 
  0.73060294    86.420354    23.108151 
  0.71976324    86.275607     23.03482 
  0.70333783    86.148291    22.968749 
  0.69599616    85.912718    22.900285 
  0.68282241    85.747124    22.829208 
  0.68458474    85.864797    22.773803 
  0.67115918    85.952172    22.723086 
  0.69586106    86.008537    22.653271 
  0.70493473    85.925838     22.58246 
  0.73944033    85.993973    22.523952 
  0.79418316    86.310153    22.485746 
  0.80580179     86.88032    22.472641 
  0.79171098    87.922224    22.468601 
  0.79972291    89.095332    22.472955 
  0.76944963    90.203297    22.473368 
  0.76463662    91.257343    22.468323 
  0.76632765    91.956512    22.462692 
  0.71359631     92.46637    22.464489 
  0.72752614    93.237691     22.47843 
  0.72520446    93.710645    22.485886 
  0.72884628    93.659292    22.473095 
  0.72260122    93.299456    22.432433 
  0.72478324     93.18349     22.39846 
  0.72078041    92.793902    22.358527 
  0.71035454    92.519338    22.331986 
  0.75241853    92.327888    22.321018 
  0.74948803    92.180525    22.311939 
  0.77229599    92.143042    22.283221 
  0.79089102    92.054627    22.247696 
  0.78636111    91.751297    22.202045 
    0.805204    91.344917    22.156977 
  0.85648685      90.8037    22.101629 
  0.82029331    89.794596    22.032589 
  0.80065477    88.880098    21.980533 
  0.80357641    87.792954    21.903474 
  0.79584242     86.65527     21.81444 
   0.7810273    85.734896    21.741687 
  0.79585054    84.908663    21.678524 
  0.75025314    84.180546    21.642848 
  0.74020291    83.693711    21.626152 
  0.76267875    83.143547    21.607371 
  0.82361077    82.464873    21.594891 
  0.79210519    81.374481    21.560748 
  0.79095753    80.247124    21.515674 
  0.77661685    79.556216    21.491708 
  0.71033038     78.87873    21.482019 
  0.75341112    78.246261    21.475183 
  0.80731818    77.352043    21.462961 
  0.82300228    76.362512    21.450653 
  0.83768984    75.465664    21.437167 
  0.85460864    74.561535    21.425741 
  0.86374908    73.703791     21.42785 
  0.85341478    73.214336    21.449631 
  0.83762922    73.160287    21.493169 
  0.81522351    73.062282    21.529811 
  0.80430587    72.677576    21.539532 
  0.77643691    72.502473    21.561821 
  0.76888997    72.400814    21.580136 
  0.76079449     72.39286    21.583824 
  0.79402042    72.638727    21.588606 
  0.79097069    72.763946    21.593866 
  0.75499436    73.087056    21.607481 
  0.73565274    73.312781    21.611184 
  0.77716074    73.810027    21.604759 
  0.80264895    74.492779    21.598633 
  0.83074452    75.367333     21.59836 
  0.87370797    76.186235    21.594902 
  0.90237697    76.958478    21.579616 
  0.95867897    77.630762    21.557455 
  0.97614215    78.035455    21.542532 
    0.937606    78.401566    21.533538 
  0.93349669    78.661382    21.534049 
  0.93986093      78.9759    21.542742 
  0.95688901    79.214881     21.55276 
  0.95197854    79.450696    21.568958 
  0.90627001    79.672085    21.583405 
  0.90367213    79.785857    21.589157 
  0.89044479    79.910737    21.583381 
   0.8925952    80.178979    21.578385 
   0.8883817    80.615615    21.572479 
  0.86555304    80.801196    21.563715 
  0.80766453    81.063779    21.569639 
  0.80769379    81.498844    21.583178 
  0.76652202    81.940375    21.606313 
  0.73258017    82.286908    21.616412 
  0.70643651    82.569601    21.617849 
  0.70762708    83.107547    21.624393 
   0.7256491    83.700995    21.640242 
  0.70424567    83.973684    21.646078 
  0.71823776    83.977663    21.641943 
  0.74919034    83.902774    21.624188 
  0.75160519    83.580709    21.595519 
  0.75627438    83.689231    21.589419 
   0.7282972    83.637458    21.588433 
   0.6964791    83.547037    21.582143 
  0.71697193    83.278777    21.566275 
  0.68615312    83.120128    21.557125 
   0.7168532    83.175202    21.553384 
  0.71063234    82.958893    21.553181 
   0.7256787    82.934969    21.559533 
  0.70796095    82.729461    21.552011 
  0.72478761    82.712351    21.543517 
  0.75395777    82.581966     21.52424 
  0.73193002    82.601026    21.521259 
  0.73037358    82.821845    21.521356 
   0.7409988    82.817755    21.518345 
  0.71037366    82.408308    21.519556 
  0.72494378    81.784317    21.499931 
  0.73579579    80.879437    21.467337 
  0.72010402     79.85184    21.426709 
  0.70584708    79.170541     21.37738 
  0.70553374    78.864477    21.347625 
  0.71143354    78.705476    21.324262 
  0.69324863    78.686806    21.306563 
  0.69381491    78.826999    21.294908 
  0.69910091    79.292871     21.30069 
  0.69779965    79.804213    21.294051 
  0.71563459    80.545986    21.291894 
  0.74999903    81.689854    21.305978 
  0.74605533     82.74577    21.313046 
  0.71412392    83.478511    21.305355 
  0.66240556    83.891816    21.299118 
   0.6589645    84.386436    21.305763 
  0.66003645    84.909431    21.316465 
  0.67386544    85.372971     21.32763 
  0.69175905    85.867914    21.345022 
  0.63528553    86.582954    21.381077 
  0.67691985    87.484371    21.418164 
  0.68982154    88.376634    21.450573 
  0.68487357    89.157469    21.476645 
  0.72391488    89.962196    21.507437 
  0.75814618    91.006985    21.545002 
  0.74696669    92.087589    21.576341 
  0.71892183    92.973089    21.600724 
   0.7506798    93.732761    21.615242 
  0.74165906    94.555023    21.623512 
  0.73171946    95.379601    21.626511 
  0.78408462    96.068751    21.623765 
  0.81070359    96.604104    21.627123 
     0.78397    97.317834    21.636061 
   0.7696005    98.025231    21.637353 
  0.72763362    98.660256    21.610804 
  0.75605973     99.36621    21.588551 
  0.76544267    100.04835    21.572914 
  0.78215514    100.67317    21.554425 
  0.83514471    101.14204     21.53421 
  0.83241936    101.30968    21.503981 
  0.85347326    101.45705    21.472266 
  0.86527482     101.6827    21.452552 
   0.8223487    101.64073    21.428368 
  0.77278725    101.32012    21.414555 
  0.77532014    100.64325    21.397721 
  0.80412286    99.777764    21.390291 
  0.79782916    98.874324    21.405695 
  0.77604072     98.29649    21.414585 
  0.77666236    98.163348     21.42546 
  0.79271247    98.280398    21.441907 
  0.76630178    98.300286    21.454806 
  0.75443623    98.556423    21.469348 
  0.71692805    98.974974    21.500184 
  0.67080666    99.130252    21.516108 
  0.71161327    99.146414    21.522096 
  0.71611018    99.208657    21.528065 
   0.7236304    99.377408    21.562741 
  0.72896597    99.637162    21.610653 
  0.76077263    100.02146    21.662714 
  0.76813843    100.67074    21.729095 
  0.74297346    101.09479    21.776652 
  0.76290672    101.49354    21.807582 
  0.73300696    101.85842    21.820201 
  0.75365686    102.12369    21.807085 
  0.78714589    102.14858    21.784754 
  0.78648807    102.05217    21.775127 
  0.77061025    101.86446    21.779415 
  0.81323121    101.66639    21.781305 
  0.82240304    101.43113    21.784924 
  0.82216031    101.61539    21.799975 
  0.80512814    101.73103    21.813179 
   0.7871285    101.85512    21.825623 
  0.77533749    102.14571    21.843617 
  0.72332741    102.40484    21.861084 
  0.67900442    102.37279    21.871041 
  0.67250731    102.43962    21.878963 
  0.73572434    102.63054    21.898238 
  0.75298816    102.45693    21.913861 
  0.75959635    101.98686    21.931207 
  0.78183103    101.28834    21.956321 
   0.7421073    100.28095    21.974902 
  0.74184826    99.181624    21.976794 
  0.72579689    98.573264     21.98667 
  0.76217407     98.13986    21.980322 
  0.77739514     97.59578    21.973272 
   0.7134931    97.047167    21.965569 
  0.69199631    96.694591    21.947582 
  0.69986282    96.316151    21.925944 
  0.75123829    95.902512    21.903385 
  0.74444731    95.360747     21.89389 
  0.73263945    94.682437    21.880835 
  0.75283218    94.208683    21.857732 
  0.78275579    93.524535     21.83467 
  0.79193062    93.241325    21.832744 
  0.81868745    93.208444    21.844977 
  0.81764644     93.39097    21.879293 
  0.81250338    93.434071    21.897674 
  0.79089166    93.181019    21.906836 
  0.79514365    93.104979    21.913719 
   0.7417191    92.991123    21.917575 
  0.75199145    93.046949    21.929654 
  0.75744536    93.445986    21.968316 
  0.69616373     93.68297     22.00559 
  0.73449318    94.168082    22.050486 
  0.75883401    94.543633    22.106221 
  0.75003387    94.834285    22.162854 
  0.73225489    95.132038    22.219379 
  0.76677773    95.508061    22.274072 
  0.78880535    95.613206     22.30642 
  0.79508272    95.751328    22.347904 
  0.80398586     95.73388    22.380774 
  0.79288895    95.897247    22.422137 
  0.75794928    95.694526     22.45078 
   0.7434115    95.766444     22.49021 
  0.75592425    95.662477    22.501454 
  0.74906648    95.153222    22.484081 
  0.77287993    94.390655    22.456508 
  0.81706258    93.516756    22.432997 
   0.7750024    92.572474    22.394364 
  0.71963794    91.555497    22.351036 
  0.70882281    90.768582    22.310225 
  0.75965628    90.233304    22.290669 
  0.82426475    89.629097    22.281352 
  0.84724741    88.851834    22.266551 
  0.89820675    88.440978    22.275878 
  0.90660886    88.218935    22.308197 
  0.88587604    87.889152    22.338365 
  0.89164913    87.431131    22.340421 
  0.83554486    86.631707    22.323742 
  0.79541697     86.09596     22.31839 
  0.78176112     85.67137    22.317031 
  0.73916172    85.213608    22.302665 
  0.77717604    84.998001    22.284325 
  0.73069944    84.512474    22.256986 
  0.73630085    83.520774    22.213363 
  0.73901433     82.60129     22.17831 
  0.72186389    81.817625    22.152249 
   0.7665524    81.333615     22.13957 
  0.77334097    80.864522    22.137045 
   0.7776697    80.007548    22.130256 
  0.77368951    79.063477    22.121131 
  0.78368113    78.247066    22.110555 
   0.7513328    77.216434    22.093727 
  0.75770736    76.029613    22.069457 
  0.79054296    75.076683    22.055105 
  0.84150167    74.305341    22.048126 
  0.85145851    73.633129    22.053757 
  0.87953416    73.333695    22.068746 
  0.89480979    72.828839     22.07714 
  0.84839566    71.953844    22.065601 
  0.86053278    70.988553    22.054896 
  0.88525497    70.406071    22.045138 
  0.89554866    69.906553    22.029661 
  0.87153453    69.102711    21.996719 
  0.87735298    68.239331    21.958085 
  0.85734789    67.563497    21.939188 
  0.80499353    67.122991    21.949697 
  0.73121904    66.945945    21.982938 
   0.7277932     66.73968    22.006223 
   0.7125931    66.336904    22.017356 
  0.73113909    66.129956    22.019675 
  0.73793684    66.166791    22.030983 
  0.70690441    66.245596    22.048312 
  0.72211368     66.61316    22.071368 
  0.75643086    66.839657     22.07395 
  0.75239383    66.782206    22.069376 
  0.75715531    66.616781     22.05543 
  0.75808326    66.547218    22.051119 
  0.78348006    66.505748    22.046681 
   0.7534687    66.382722    22.043226 
  0.77218867    66.339449    22.028736 
  0.73149253    66.284022    22.028752 
  0.71986404    66.438893    22.039683 
  0.69218947    66.573796    22.050418 
   0.6981936    66.581644    22.060979 
  0.68047889    66.559612    22.099321 
  0.69422971    66.571679    22.145701 
  0.68388685    66.661196    22.192581 
  0.69555361    66.747514    22.234465 
    0.684365    66.799046    22.275979 
  0.71760655    66.993883    22.314357 
  0.70390136    67.101137    22.343565 
  0.73523495    67.194144    22.363145 
  0.74815712    67.255311    22.395105 
  0.72383383    67.123834    22.422354 
  0.74327972    66.940773      22.4435 
  0.70171834    66.484433    22.460381 
  0.67091467    65.920359    22.471851 
  0.68175524    65.437884    22.484366 
  0.67659723    64.762221    22.484914 
  0.68212168    63.981027    22.468745 
  0.66804132    63.125348    22.448551 
  0.64961999    62.389944    22.440254 
   0.6858855    62.018269    22.444233 
  0.68331243    61.668091    22.449515 
  0.71823932    61.392414    22.456767 
  0.69517952    61.104216    22.455597 
  0.71457158    60.982247    22.472216 
  0.75101452      61.2538    22.520836 
   0.7290122     61.12855    22.557834 
  0.74147307    60.996724     22.58409 
  0.74232239    61.057954    22.615136 
  0.76152507    61.281549    22.640282 
  0.75492042    61.662304    22.674337 
  0.75956763    62.377417    22.717303 
  0.74295197    63.036563    22.755573 
    0.703438    63.513017    22.782286 
  0.70977013    63.821622    22.796636 
  0.73680095    64.157223    22.816289 
  0.70485843     64.47072    22.851902 
  0.73848745    64.904129     22.89201 
  0.76101844    65.102104    22.912606 
  0.77421917    65.190639    22.920058 
  0.76828104    65.114071    22.917985 
  0.71677698    64.703644    22.907291 
  0.71542047    64.107587    22.886981 
  0.69319263    62.939431    22.836228 
  0.67579451    61.824416     22.78444 
  0.71827614    60.892084    22.732421 
   0.6999993    59.897001    22.679781 
  0.72691086    58.962785    22.626192 
   0.7287123    58.005003    22.578901 
  0.75337875    57.215388    22.543107 
  0.75789696    56.594233    22.514165 
  0.74730887    55.752353     22.47376 
  0.77353604    54.963097    22.433169 
  0.75849867    54.168523    22.398691 
  0.73393196    53.658741    22.379956 
  0.71438949    53.196936    22.371787 
  0.70374086    52.639196     22.35903 
  0.74999713    51.886171    22.324611 
  0.75102138    51.050753    22.276901 
  0.78690295    50.362762    22.234252 
  0.83554846    49.697004     22.19273 
  0.85741286    49.076567    22.156942 
  0.86310963    48.455448    22.125551 
  0.84710699    47.781065    22.091222 
   0.8171584    47.393764    22.073536 
  0.86943518    47.006776    22.047271 
  0.91118373    46.652556    22.021819 
  0.92030049    46.236987    21.993541 
  0.90242992    45.891785    21.975056 
  0.86636683    45.526803    21.955207 
  0.81722278    45.229514    21.938597 
  0.77272746     45.14546    21.930581 
  0.71914705    45.255275    21.934602 
  0.77403247    45.799707    21.951512 
  0.78421356    46.295117    21.973782 
  0.76326808    46.632408     21.99415 
   0.7702791     47.06765    22.018144 
  0.77191916    47.768731    22.055435 
  0.76075149    48.561289    22.110728 
  0.80322936    49.367758    22.158311 
  0.76893901    49.994717    22.200413 
  0.76360992    50.517001    22.246279 
  0.78835242    51.084977    22.293987 
  0.76868695    51.743794    22.346544 
  0.72925928    52.358794    22.397525 
  0.71671338    53.034025    22.450952 
  0.68077201    53.839971    22.508187 
  0.68874963    54.630294     22.55232 
  0.72509042     55.25242    22.580706 
  0.75766089    55.594443    22.600127 
  0.72892855    55.701522    22.617922 
  0.73252178    56.062405    22.638419 
  0.71714331    56.493228    22.663912 
  0.71749446    57.009411    22.692824 
  0.73496632    57.562024    22.712392 
  0.74850541    58.054521    22.727369 
  0.70386563    58.783915    22.758701 
  0.69498455    59.590987    22.790663 
  0.71291147    60.121997    22.813581 
  0.76659979    60.382292    22.816845 
  0.78494307    60.484575    22.822868 
  0.78801259    60.562183    22.824086 
  0.78406313    60.585176    22.830609 
  0.78762599    60.766291    22.846231 
  0.81662191    61.026786    22.868787 
  0.78239639    61.221397    22.896795 
  0.77670177    61.751792    22.937791 
  0.78386575    62.424861     22.97243 
  0.77079273    62.761852    22.978195 
  0.75938859    63.062849    22.979254 
  0.81528771    63.735839    22.988123 
  0.86997684    64.524452    23.004627 
  0.86704464    65.082549    23.021291 
  0.83681926    65.617484    23.043705 
  0.82202266    66.058816    23.064561 
   0.8242296     66.29952    23.072435 
  0.80812085    66.429863    23.067392 
  0.77451091    66.539106    23.054936 
  0.72471555    66.541974    23.046049 
   0.7321906    66.854278    23.059018 
  0.73681905    67.322664    23.080357 
  0.73316228    67.727764    23.106381 
  0.74933685     68.03251    23.123586 
   0.7469229    68.385077    23.147499 
  0.78437824    68.823206    23.171333 
  0.81440992    69.442756    23.205549 
  0.84503358    69.995075    23.222492 
  0.81044765    70.214658    23.220483 
  0.81201309    70.509857    23.214572 
  0.82416074    71.175942    23.219312 
  0.82365982    71.839409    23.221207 
   0.8421877    72.336355    23.223615 
  0.80920107       72.868    23.243213 
  0.82256452    73.431904    23.265346 
  0.81948493    73.882075    23.290588 
  0.73923463    74.127262    23.311973 
  0.79430329    74.207372    23.318648 
  0.84450423    74.000427    23.294284 
  0.84215932    73.900943    23.279046 
  0.82606786    73.938992     23.26386 
  0.78531883    73.971167    23.252406 
   0.7560143     74.00992    23.246923 
  0.74418877    73.849971    23.228563 
   0.7454047    73.540836    23.213721 
  0.72916106    73.360878    23.198186 
  0.71973687    73.355176    23.181817 
  0.77011113    73.560181    23.176497 
  0.78909826    73.231224    23.151104 
  0.78947863    73.258601    23.136389 
   0.7816044    73.467083    23.142201 
  0.78002588     73.70751    23.155815 
  0.77157406    73.676391    23.146622 
  0.78008097    73.446655    23.116932 
  0.78615694    72.884468    23.064472 
  0.76212437    72.176876    23.004011 
  0.76115474    71.475186    22.949189 
  0.76077721    70.643062    22.880606 
  0.77641507     70.16722    22.836981 
  0.77497695    69.546587    22.793083 
  0.77459255    68.822124    22.753587 
  0.76976198    68.224814    22.726821 
  0.78747467    67.642288    22.702246 
   0.7932998    67.014341    22.679586 
  0.83074191    66.349397    22.647464 
  0.87210179    65.575359    22.608391 
  0.88858844    64.960428    22.583203 
  0.86950299    64.246154    22.558759 
  0.84910616    63.818547    22.556206 
  0.85009155    63.693807    22.572193 
  0.82020419    63.582165    22.582019 
  0.78460859    63.599201    22.585971 
  0.78117307    63.762358    22.599464 
  0.78892564    64.055291    22.627406 
  0.82193943      64.7142    22.665339 
  0.82501628    65.571002     22.71557 
  0.79589781     66.66738    22.774647 
  0.78616459    67.596582    22.823929 
  0.79075398    68.443353    22.864105 
  0.84658076    69.417692     22.90367 
  0.90182158    70.018933    22.925102 
  0.87156113    70.192988    22.935456 
  0.84897556    70.352947     22.94379 
   0.8744749    71.168586    22.985131 
  0.88578346    71.899478    23.025357 
   0.8496286    72.580469      23.0577 
  0.83340373    73.367208    23.086439 
  0.81219659    74.154028    23.107142 
  0.76374663     74.76045    23.128881 
  0.79396636    75.362561    23.154294 
  0.79693262    75.644923    23.169423 
  0.77801092    75.805046     23.17996 
  0.76302604    76.122748    23.183113 
  0.77772119    76.284924    23.172265 
  0.78852833    76.518923    23.173013 
  0.79503374     76.71366    23.158335 
  0.83884944    77.024693     23.14117 
  0.84014963    77.378616     23.13371 
  0.86603093    77.691286    23.138164 
  0.90785532    77.923984    23.141447 
  0.95284288    78.003287    23.134871 
  0.93426246    77.993435    23.135947 
  0.89594644    78.125091    23.138928 
  0.90128827    78.519096    23.153747 
  0.88934748    78.782697    23.159339 
  0.85831214    78.888177    23.158432 
  0.86783919    79.000919    23.157637 
  0.84700007    79.082914    23.168571 
  0.84611921     78.96306    23.166113 
  0.85368641    79.117139    23.179143 
  0.81332701    79.263658    23.198275 
  0.83960456    79.618377    23.223223 
  0.88818925    79.994905    23.247395 
  0.92416136    80.242695    23.264461 
  0.92665285    80.364678    23.282994 
  0.92165572     80.00985    23.277431 
  0.96129037    79.620948    23.253397 
   0.9181706    79.240059    23.243154 
  0.88426162     79.01908    23.244498 
  0.88792944    78.958834    23.250421 
  0.87856972    78.682401    23.259156 
  0.85112895     78.22429     23.26209 
  0.85667451    77.713173    23.264748 
  0.83963391    77.507556    23.274416 
  0.80119932    77.316654    23.286803 
  0.75955195    76.979323    23.277539 
  0.75830396    76.653755     23.26257 
  0.79124045    76.102466    23.239294 
  0.78327434    75.390794    23.217777 
  0.77721223    74.624746     23.19747 
  0.77826557    74.223544    23.189888 
  0.75952112    73.743322    23.184592 
   0.7735657    73.661632    23.186392 
   0.7686055    73.627208    23.183672 
  0.72182527    73.316626       23.158 
  0.73376895    73.041861      23.1251 
  0.71254939    72.974515    23.099717 
  0.67556973    72.960184    23.074531 
  0.69804409    73.061451    23.058815 
  0.68271787    73.266718     23.05675 
  0.70374426    73.680997    23.063016 
   0.6753205    73.854773    23.074309 
    0.717218    73.883926    23.069595 
  0.69909535    73.638894    23.049279 
  0.69333908    73.564514    23.029793 
  0.70462662    73.666223    23.022404 
  0.70923131    74.047411    23.040211 
  0.73303304    74.562629    23.078551 
  0.71741077    74.721773    23.101588 
  0.69574464    74.759052    23.116666 
  0.65331827    74.860598      23.1404 
  0.70900933    75.161716    23.158662 
  0.73539304    75.305965    23.174728 
  0.74076414      75.4096    23.195886 
  0.74132784     75.80305    23.235766 
  0.72949527    76.242066    23.274801 
  0.74131118    76.391216    23.287149 
  0.76655728    76.369645    23.281838 
  0.71608439    76.211752    23.272156 
    0.667844    76.177302    23.264815 
  0.66891537    76.307812    23.262465 
  0.69139853    76.267741    23.253749 
  0.70275838    76.268998    23.247917 
  0.73960699    76.423232    23.249217 
  0.71842508    76.255887    23.237921 
  0.69911074    76.181087    23.223514 
  0.74301112     76.19005    23.196216 
  0.74165638    76.187386    23.173291 
  0.70686227    76.282385    23.156538 
  0.71351083    76.777795    23.163967 
  0.69723495    77.260292    23.171013 
  0.73288237    77.400087     23.16392 
  0.71439468    77.209048    23.141432 
  0.71044329    77.025513    23.115985 
  0.73108898    76.867833    23.085004 
  0.74821626    76.965018    23.061639 
  0.76285579     77.21797    23.050173 
  0.74721858    77.457584    23.039198 
  0.71199176    77.545768    23.015878 
  0.70507572    77.544421    23.001621 
  0.67220233    77.448757    22.993239 
  0.71186547     77.56165    22.992091 
  0.69516199    78.033361    23.009649 
  0.67451086    78.464774    23.030834 
  0.69255192    78.644568    23.029981 
    0.718484    78.734789    23.024786 
   0.7452429    78.961442    23.034737 
  0.74343796    79.060865    23.041394 
  0.77764974     79.11373    23.033935 
  0.79267935    78.927232    23.018574 
  0.79262392    78.832752     23.00015 
  0.74828282    78.883164    22.981589 
  0.73929828    79.212281    22.974479 
  0.73348549    79.215608    22.950417 
  0.72164229    79.137112    22.922007 
  0.70226329    78.748649    22.889065 
  0.68165462    78.267808    22.845395 
  0.67421234    77.600158    22.792593 
  0.69539144    77.119636    22.748421 
  0.71778798    76.793371    22.709473 
  0.68302602    76.679914    22.674862 
  0.68755689    76.693752    22.644418 
  0.70099065    76.665159    22.614207 
  0.74093319    76.483493    22.586485 
   0.7334644    76.067448    22.552479 
  0.73800267    75.592925    22.510848 
  0.74254518    75.177693    22.471165 
  0.74411282    75.044144    22.442851 
  0.72577641    75.166175    22.419263 
  0.67565802     75.17038    22.398185 
  0.66927853    75.134606    22.373794 
  0.67982235    75.186175    22.358303 
  0.67100306    75.220466    22.344102 
  0.67133997    75.432275    22.320981 
  0.67391953    76.103217    22.322075 
  0.66016338    76.719452    22.323058 
  0.67854287    77.439782    22.326126 
  0.65139808    77.971418    22.326334 
   0.6844548      78.4454    22.319198 
  0.67881398    79.062414    22.322264 
  0.66675862    79.834785    22.333561 
  0.68183294    80.576145    22.348608 
   0.6584775    81.544974    22.370467 
  0.69845411    83.008452    22.412012 
  0.72903807    84.041646    22.448424 
  0.74624429    84.563111    22.472942 
   0.7558499    84.670947    22.477664 
   0.7719869    85.008934    22.493218 
  0.79835317    85.123444    22.509652 
  0.85301111    85.145363    22.532812 
  0.85018485    85.084889    22.562112 
  0.84565612     85.26737    22.604279 
  0.82428272    85.513271    22.638123 
  0.83611996     85.67703    22.664029 
  0.82844828    85.515334    22.675822 
  0.82763608    85.627043    22.683026 
   0.7850529    85.791834    22.688083 
  0.78723054    86.103837    22.704935 
  0.77790665    86.454898    22.735723 
  0.76765186    86.708467    22.761668 
  0.79958853     86.97044    22.770406 
  0.82381613    87.432275    22.777104 
   0.8273482    87.885979    22.780655 
   0.8182926    88.217089    22.788273 
   0.8331622    88.281137    22.780707 
  0.87157293    88.437262    22.780094 
  0.84255268    88.272164    22.775235 
  0.82662456    87.910346    22.759886 
  0.81826076    87.908279    22.757093 
  0.78866803    88.005248    22.764334 
  0.75593935    88.188321    22.779439 
    0.721567    88.320802    22.789854 
  0.71963714    88.409636    22.787903 
  0.73126771    88.467743     22.79705 
  0.73780089    88.453918    22.809023 
  0.67871349    88.305392    22.835355 
  0.70997652    88.666901    22.874426 
  0.69499743    88.998804    22.909963 
  0.70466516    89.176322    22.937207 
  0.72933974    89.737768    22.978169 
  0.71180936    90.424782    23.015444 
  0.70375673    91.244034    23.046634 
  0.73193072    91.838787    23.066816 
  0.73432646    92.184839     23.08589 
  0.75339878    92.752204    23.113455 
  0.73473254    93.013387     23.14191 
  0.74104057    92.964861    23.143581 
  0.73722198    92.455376    23.120408 
  0.73699657    91.944895    23.096523 
  0.73967077    91.691876    23.081691 
   0.6811077    91.699372    23.084478 
   0.7066619      91.7572    23.088716 
  0.71185703    92.074845    23.108005 
  0.75247798    92.646384     23.13921 
  0.76605281    93.448652    23.176799 
  0.75983263    94.226671     23.21908 
  0.75465457      95.3282    23.271203 
  0.75176359    96.548292    23.317849 
   0.8018323    97.463826     23.35174 
    0.800482    98.057603    23.383739 
   0.7874608    98.539356    23.412299 
  0.76783002    98.818869    23.433993 
  0.74039514    99.092759    23.440734 
  0.70429469    99.165203     23.44138 
  0.72068457    99.042347      23.4344 
  0.71957344    98.824584    23.436616 
  0.68863974    98.553271    23.435117 
  0.73175014    98.468257    23.437749 
  0.82638761    98.789246    23.453154 
  0.87710872    99.100983    23.469229 
  0.89108313    98.982902    23.466623 
  0.90544136    98.619007    23.474209 
  0.89413408    98.408933    23.492019 
  0.89807371    98.451182    23.524347 
  0.92830583    98.433944    23.549696 
  0.93290998    98.578706    23.574875 
  0.93649043    98.727009    23.588592 
  0.92309512     98.64369    23.591877 
  0.88518302    98.499218    23.583086 
  0.87446741    98.175449    23.562696 
  0.83025051    97.661543    23.536831 
  0.79017789    97.155358    23.500806 
   0.7923818    96.775547    23.477175 
   0.8359441    96.212694     23.45585 
  0.82756742    95.420099    23.423917 
  0.79957358    95.166953    23.420167 
  0.78507785    95.200311    23.437956 
  0.77997292    95.174979    23.440857 
  0.76519608    94.729945    23.428968 
  0.75631642    94.329594    23.429808 
  0.74844176     93.92467    23.438001 
  0.73921472    93.519389     23.43874 
  0.74253648    93.513027    23.451111 
  0.70283468    93.543359    23.471721 
   0.7101153    93.772601    23.487056 
  0.69859113    93.972634    23.502521 
   0.7111023    93.958842    23.507599 
  0.74803289    94.019582    23.522045 
   0.7672739    94.208604    23.534679 
  0.80236287    94.449823    23.542918 
  0.79969133    94.695915    23.562334 
  0.81392083    95.081511    23.597137 
  0.82067695    95.644469     23.64309 
  0.83189248    95.976246    23.682507 
  0.84010912    96.149244    23.713971 
  0.82034451    96.560592    23.752663 
  0.83073335    96.976926    23.786598 
  0.79712557    97.195233    23.811882 
   0.7425694    97.505592    23.837253 
  0.75901115    97.903737    23.860455 
  0.80042293    97.871248    23.872926 
  0.78963614    97.729414    23.885579 
  0.83157708    97.504929    23.886323 
  0.80944691    96.868654    23.874624 
  0.79573816    96.004001    23.845777 
  0.78112734    95.459858    23.830522 
  0.74796198    95.324753    23.825695 
  0.74460429    95.573773    23.824246 
  0.75554323    95.781516    23.809783 
  0.71854389    96.023065    23.808581 
  0.73416065    96.324758    23.809449 
  0.76209043    96.753486    23.814214 
  0.82066895    97.232292    23.817886 
  0.82757334    97.091547    23.802402 
  0.79376392    96.632213    23.772011 
  0.75459122    96.034701    23.742363 
  0.74915202    96.009733     23.73981 
   0.7480414    96.108764    23.744715 
   0.7059195    96.558961    23.751088 
  0.70262233    97.035435     23.74659 
  0.72536036    97.196805    23.731095 
  0.74797953    97.158267    23.715121 
  0.77863897     97.08121    23.685722 
  0.79705407    96.974606    23.653007 
  0.78144934    96.870511    23.617405 
  0.75955255    96.848549    23.592253 
  0.74237075    96.941306    23.578599 
  0.75309436    97.248082    23.575305 
  0.76019891    97.610988     23.56548 
  0.71780147    97.809848    23.539009 
  0.75566202    97.840289    23.494761 
  0.76493157    97.816737    23.456406 
   0.7923292    98.027338    23.422433 
  0.82369137    98.479866    23.405043 
  0.86164266    99.029861    23.401147 
  0.87258549    99.580389    23.404945 
  0.86103552    100.21366    23.416536 
  0.85942458    100.92473    23.429058 
  0.83412303    101.62321    23.435544 
  0.78458272    102.24272      23.4415 
  0.76258224    102.85836    23.444956 
  0.77721973     103.5627    23.456373 
  0.78000123    104.09824    23.464661 
  0.81776492    104.17582    23.446279 
  0.82993361    104.23139    23.421355 
  0.81581651    104.41263    23.405754 
  0.84855854    104.91149    23.404643 
  0.84859076    105.45706    23.412024 
  0.80141361    105.85754    23.441098 
  0.79534777    106.19443    23.469972 
   0.7943542    106.42403    23.488401 
  0.77741361    106.47226     23.51268 
  0.75274488    106.45087    23.532044 
  0.75749785    106.44895    23.551242 
  0.72722903    106.27123    23.576875 
  0.66933857    105.95239    23.605593 
  0.68031629    105.51614    23.630969 
  0.70097649    104.86514    23.649113 
  0.67399181    104.32665    23.666739 
  0.65416558    104.41442     23.69973 
  0.69288688    104.44084    23.723876 
  0.67255216    104.24154    23.732633 
  0.65382058    103.91841     23.72792 
  0.65671253    103.70127    23.732681 
  0.63295026    103.97809    23.755376 
  0.65550925    104.53689    23.790767 
  0.64790357    104.87146       23.824 
  0.66594565    104.99841    23.846824 
  0.65902579    105.03711    23.872239 
  0.69185209    105.14739    23.885655 
  0.68717968    104.94196    23.890038 
  0.68053354    104.80803    23.892246 
   0.6638208    104.81571    23.901414 
  0.67529691    104.95822     23.91482 
  0.66852198    105.39415    23.945417 
   0.6953903    105.85452     23.97493 
   0.7434681     105.9458    23.988473 
  0.71849072    105.79833    23.993138 
  0.72590968    105.44573    23.989823 
  0.69148885    105.58163    24.011323 
  0.71538751    106.03135    24.042146 
   0.7166672    106.06358    24.055501 
  0.70386008    105.79965    24.051796 
  0.72536168    105.47492    24.039777 
  0.75475307    105.08842    24.028776 
  0.72651078     104.8635    24.032322 
  0.81502028    105.10626    24.045938 
  0.87258449    105.34215    24.061683 
   0.8782555    104.73976    24.042198 
  0.90966546      104.054    24.015272 
  0.90671354     103.6587    24.001542 
  0.89462832    103.71318    24.011052 
  0.87330546    103.94989     24.02453 
   0.8578813    104.02687    24.027796 
  0.87299868    104.08647    24.019354 
  0.86165629     104.0249    24.005165 
  0.87657097    104.09837    23.993155 
  0.90322039    104.30885    23.974391 
  0.84059635    104.19186    23.945068 
  0.80868406    104.02595    23.914237 
  0.81740793    104.07103    23.892181 
  0.82609807    103.79315     23.87341 
  0.82239315    103.73401    23.861939 
  0.84075813    103.49451    23.847192 
  0.84328294    103.22837    23.829016 
  0.79264591    102.99434    23.816663 
  0.77883273    102.37542    23.792121 
  0.74526407     101.6972    23.766921 
  0.77317317    101.10235    23.732082 
  0.77022041    100.62662    23.718262 
  0.74441324    100.35993    23.723656 
  0.76190684     100.6312     23.75223 
  0.74738481    100.84097    23.773717 
  0.69325286    101.09491    23.802619 
  0.72059668     101.6791    23.837559 
   0.7381988    102.46963    23.875856 
  0.74619284    103.35756    23.902001 
  0.78340373     104.3567    23.929271 
  0.82978443    105.40472    23.965762 
  0.82516882    106.45569    24.007782 
  0.82511737    107.90237    24.049962 
  0.83336273    108.82893    24.067719 
    0.821756    109.63261    24.080515 
  0.87546028    110.76799    24.094767 
  0.87228193    112.22232    24.131892 
   0.8128056    113.65157    24.182251 
  0.81408107    115.16246     24.22847 
  0.81587684    116.73373    24.282159 
  0.81421372     118.3325    24.331583 
  0.88728411    119.92024    24.384796 
  0.90666393    121.49818    24.441643 
  0.90674037    122.82404    24.492582 
  0.90473149    124.19717     24.54285 
  0.89767926    125.52956    24.598704 
  0.89650352    127.28843    24.667478 
  0.83962377    128.98866    24.738307 
  0.81354835    130.17498    24.780592 
  0.79146949    131.10678    24.804732 
  0.72517215    132.14553    24.837401 
  0.77947506    133.13075    24.868672 
  0.80526666     134.2683    24.897798 
  0.76247986    134.97805    24.910097 
  0.76758712    135.52422    24.913187 
  0.78944533     135.8773    24.913602 
  0.79720105    135.97632    24.902667 
  0.76759253    136.06161    24.880067 
  0.75843335    136.45319    24.863589 
  0.76895387      136.777    24.851689 
  0.76914051    136.97514    24.831614 
   0.8283058    137.42098    24.803437 
  0.79781758    138.08674    24.770593 
  0.78532325    139.04433    24.751818 
  0.76449145    139.56957    24.727222 
  0.80781482    140.24423    24.702188 
  0.88437166    141.45486    24.696177 
  0.92957553    142.80107    24.702144 
   0.9811783    143.72136    24.696528 
   1.0010402    144.31272    24.689926 
  0.99712528    145.27842     24.68817 
   1.0277162    146.45749     24.70032 
   1.0099732    147.10278     24.69189 
   1.0242139     147.7731    24.687302 
   1.0332614    148.85794    24.699938 
   1.0781936    150.68213     24.72841 
    1.062714     152.0753    24.745317 
   1.0595766    153.05964    24.756644 
  0.99439533    153.76122    24.773017 
  0.94444121    154.39229    24.787405 
  0.93964607    154.96002    24.809832 
  0.87194698    155.06045    24.831853 
  0.87269938    154.61019    24.835358 
  0.83734344    153.86441    24.838523 
   0.8078372    153.34627    24.864202 
  0.75007728    153.02559    24.896959 
  0.75895336     153.0554    24.939207 
  0.78048311    152.69674    24.967646 
  0.81209792    152.08821    25.006886 
  0.83379687    151.36037    25.049875 
  0.86442851    150.59053    25.077767 
  0.89119277    150.00038    25.108888 
  0.94110138    150.01418    25.149997 
  0.97002046    150.17137    25.179738 
  0.96329929    150.06725    25.211361 
  0.94269634    149.91994    25.242921 
  0.98774112    149.49501     25.25238 
  0.98050785     149.5068     25.26602 
  0.95490138    149.90936    25.291861 
  0.98864829    150.78709    25.337325 
  0.98305211    151.43273    25.387688 
  0.96039252    151.92807    25.439075 
  0.92378087    152.21682    25.492311 
   0.8592404    152.42431    25.551437 
  0.80884045    152.68736    25.607372 
  0.77560354    153.30771    25.657924 
   0.7950932    154.00687    25.695659 
  0.83627178    154.90616     25.73308 
  0.85946588     156.0472      25.7838 
  0.86903251    156.80311    25.813353 
  0.82294088    156.97004    25.828534 
   0.7997278    157.04127    25.844034 
  0.79597241    156.74882    25.844324 
  0.77894573     156.6161    25.855444 
  0.76764099     156.5094    25.862804 
  0.77598063    156.40273    25.874005 
  0.80936547    156.36382    25.890014 
  0.81933021    156.37906    25.892202 
  0.83357389    155.94709    25.872457 
  0.85747007    155.28825     25.85815 
  0.84755106    154.62895    25.848674 
  0.83449901     153.5351     25.82394 
  0.76470585    152.58502    25.809226 
  0.74278437    152.40578    25.820194 
  0.76704646    152.66416    25.839887 
  0.75378873    152.98814    25.870358 
  0.71482226    153.10815    25.904354 
  0.73117027    152.81662    25.915764 
  0.74542085    152.74427    25.926628 
  0.74687703    152.64261    25.937145 
  0.73618798    152.61941    25.939374 
  0.73560705    152.68992    25.939086 
  0.76886598    152.92983    25.940809 
  0.80911531    152.73732    25.929319 
  0.80663887    152.51214    25.921678 
  0.76592298    151.86235    25.913317 
  0.74238875    151.13868    25.899004 
  0.75006854    150.65309    25.878837 
  0.70739941    150.40831    25.866779 
  0.69469919    150.40152    25.854582 
  0.69700871    150.17254     25.82248 
  0.70319555     150.2763    25.790579 
  0.67271988    150.36716    25.764954 
  0.67787769    150.38707    25.736684 
  0.70484428    150.72632    25.706125 
  0.75914967     151.5911    25.689771 
  0.76992169    152.62708    25.669767 
  0.75944887     153.5981    25.659679 
    0.734043    154.42974      25.6682 
   0.7577685    155.49576    25.686377 
  0.77713551     156.6549    25.699989 
  0.79941581    157.63508    25.716104 
  0.83615279    158.58688    25.728285 
  0.83231806    159.44745    25.744751 
  0.81301088     160.3773    25.757931 
  0.81431408    161.05597     25.75337 
  0.79460398      161.909    25.747584 
  0.73440882    162.96026     25.74312 
  0.73304615     164.1326    25.739601 
  0.71437014     165.2738    25.736975 
  0.69837531    166.13088    25.730147 
  0.72758602    166.85631    25.719796 
  0.74821061    167.29454    25.717804 
  0.73993193    167.35664    25.709124 
  0.72006749    167.07789    25.692001 
   0.7029694    167.00563    25.685637 
  0.73832039    166.98988    25.676445 
  0.74434964    166.87487     25.67243 
  0.75949632    166.62416    25.667441 
  0.73022971    165.87194    25.648562 
  0.73531458    165.64976    25.641718 
  0.73350928    165.32206     25.63317 
  0.74573244    164.70142    25.607655 
  0.79416628    163.73669    25.572432 
  0.79749767    162.80975    25.550305 
  0.81861872     162.0544    25.539109 
  0.81982095    161.12983    25.513869 
  0.81412443    160.55058    25.499342 
  0.78680727      159.794    25.486082 
  0.73491559    159.13445    25.471688 
  0.73883994    159.02405    25.473934 
  0.75725113    158.81031     25.47094 
  0.74664228    158.45708    25.478818 
  0.73843341     157.8154    25.484311 
  0.74963777    157.24318    25.502281 
  0.74153354    156.22102    25.514966 
  0.74944561    155.38006    25.534906 
  0.75590443    154.20494    25.532185 
  0.77337685    153.11386    25.524636 
  0.77179031    152.42399    25.523284 
  0.70913207    152.08306    25.542449 
   0.7027794    152.57867    25.583094 
  0.70303306    153.62168    25.633088 
  0.72937138    154.78225    25.682466 
  0.72863539    155.53091    25.722923 
  0.74398961    156.23618    25.775467 
  0.71069445    157.07309    25.830757 
   0.6970646    157.50814    25.872105 
  0.65716743    157.99956    25.901006 
  0.68898391    158.38724    25.920159 
  0.71074704    158.97418    25.942433 
  0.74887853    159.86705    25.966583 
  0.76424632    160.44035    25.977808 
  0.76234012     161.0929    25.996361 
  0.76547981    162.14027    26.023119 
  0.73346328    163.43625    26.060445 
  0.76321783    164.62057     26.08904 
  0.79033166    165.61007    26.116429 
  0.76830816    165.72424    26.114996 
  0.71557597    165.77402    26.097972 
  0.69479728      165.292    26.061099 
  0.70047741    164.93061    26.030827 
  0.72401924    164.88744    26.003527 
  0.74401853     164.5497    25.979081 
  0.70533712    164.28087    25.947476 
  0.74129861    164.13062    25.908963 
  0.79053489    164.22429    25.872014 
  0.81152375    164.57417    25.860956 
  0.79249317    165.21273    25.860862 
  0.79331246    166.00786    25.869022 
  0.77822112     166.7614    25.885566 
  0.73964334    167.50025    25.915735 
  0.71317549    168.07389    25.942042 
   0.6960176    168.38815    25.970583 
  0.70400068    168.68111     25.99545 
  0.72842009    168.92292    26.014521 
  0.72036545    168.92232    26.032316 
  0.71615476    168.51303    26.039663 
  0.72305222    168.02193    26.027784 
  0.72946899    167.08502    25.993874 
  0.70692014    165.61056    25.954199 
  0.74911308    163.88678    25.907279 
  0.75278649    162.35822    25.865194 
   0.7602509    161.69861     25.85105 
  0.74432102    161.56469    25.853564 
  0.76279402    161.63635    25.857343 
  0.75023663    161.62525    25.854518 
  0.74850508    161.49179    25.843426 
  0.71218688    161.62521     25.84799 
  0.72458791    161.92447    25.856862 
  0.69333708     162.2417    25.877796 
  0.71978931    163.15407     25.91294 
  0.75161204    164.08651    25.942597 
  0.77080395    164.83648    25.967962 
  0.74642813    165.33123      25.9878 
  0.72747115    166.20544    26.022187 
  0.69788749    167.26537    26.060784 
  0.69510084    168.81801    26.103887 
  0.70387207    170.59959    26.153131 
  0.68260311    172.11408     26.19297 
  0.69046097    173.25404    26.225654 
  0.73179683    174.24387    26.257514 
  0.75259776    175.16594    26.294972 
  0.70924445    176.09435    26.331067 
  0.75447191    177.15838     26.38807 
  0.76646161    178.32677    26.466968 
  0.69911041    179.76583     26.55554 
   0.6995397    181.12266    26.638053 
  0.75725572    182.02167    26.709435 
  0.76459242    182.50963    26.770515 
  0.76198148    183.20473    26.835402 
  0.78197411    183.49995    26.884581 
  0.76935513    183.62835    26.916888 
  0.74892098    183.34659    26.930301 
  0.75511075    182.60825    26.922941 
  0.75927665    181.69227    26.911683 
  0.75279325     181.2129    26.911181 
  0.77260363    180.49406    26.893708 
  0.84083983    179.75229    26.874863 
  0.89619394    178.74036     26.84715 
  0.92316727    177.38676    26.802002 
  0.93850404    176.26872    26.763088 
  0.93860494     174.9499    26.717654 
  0.92628982    173.17669    26.647424 
  0.90936826    171.18827    26.570682 
  0.87015652    169.20796    26.502583 
  0.83656329    166.88941    26.428137 
  0.84177558    165.00028    26.366814 
  0.83459463     163.2819    26.308978 
  0.83708742    161.85232    26.259599 
  0.85161849    160.64104    26.224905 
  0.81262476     159.0652    26.178133 
  0.79284496    157.58581     26.13146 
  0.81790985    156.29434    26.082178 
  0.80265819    154.80147    26.020034 
  0.81762949    153.50835    25.958971 
  0.81467056    152.56632     25.90684 
  0.80376596    151.62993    25.840478 
  0.78010932    150.61836    25.766832 
  0.80419087    150.17931    25.706417 
  0.81222528     150.3631    25.662618 
  0.80077521    150.78262    25.633605 
  0.79311264     151.3432    25.602658 
  0.79130817    151.93882    25.576459 
  0.76235747    152.56847    25.568592 
  0.80162657    152.81541     25.54246 
  0.76965668    152.35249    25.505326 
  0.74863283    151.86292    25.488245 
  0.75893171    151.35983    25.473054 
   0.7279286    150.42206    25.447504 
  0.71905074    149.37385    25.420275 
  0.70309108     148.1167    25.382484 
  0.69833837    146.96193    25.359204 
   0.7109667    146.03151    25.348184 
     0.69048    144.92536    25.319738 
  0.69292764    143.75131    25.282943 
  0.65302662    142.69436    25.250857 
  0.68132523     141.6658     25.21566 
  0.67588176    140.70338    25.180517 
  0.66436277    139.96819    25.159052 
  0.69130382    139.04297     25.12637 
  0.68118695    137.89621    25.091117 
  0.71777368    137.02633    25.057018 
  0.69627996    136.11467     25.02472 
   0.7105085    135.06866    24.989983 
  0.71589526    133.82774    24.952356 
  0.69990867    132.77032    24.923383 
  0.69386738    131.97452    24.901178 
  0.71103436    131.05262    24.870146 
   0.7226284     130.8021    24.866991 
  0.71993961    130.90817    24.886135 
  0.71031273    131.29237    24.923531 
  0.73797258    131.53802    24.962018 
  0.74887135    131.27757    24.999916 
  0.77461714    130.84881     25.03298 
  0.77472937    130.50027    25.062085 
  0.78762443    129.71149    25.072926 
  0.77406433    128.89341    25.082138 
  0.78142968    128.80895    25.111087 
  0.73574186    128.96549    25.148801 
   0.7240586    129.05395    25.178851 
  0.69483884     129.1266     25.20292 
  0.67222091    129.27853    25.228249 
   0.6630287    129.87715    25.257693 
  0.66284085    130.60493    25.291684 
   0.6959853    131.09657    25.322705 
  0.70050509    131.96804    25.388174 
  0.72588253    133.31664    25.466397 
  0.72870192    134.56165    25.537703 
  0.71820527    136.24058    25.609442 
  0.70502713    137.65734    25.650515 
  0.68981676    138.62242    25.674369 
  0.71763451    139.97302    25.710209 
  0.68360652    141.19078    25.745705 
    0.674114    142.15027    25.766327 
    0.687524    142.50464    25.755644 
  0.68043313    142.98731    25.749126 
  0.67776534    143.94089    25.765323 
  0.70698784    144.83244    25.775649 
  0.66793208    145.43317    25.780111 
  0.68319857    146.11203    25.776278 
  0.67897401    147.27876    25.799518 
  0.71919822    148.94267    25.840222 
  0.70801138    150.11208    25.882217 
  0.74351866    150.83469    25.906781 
  0.74615504     151.4018    25.925133 
  0.73662652    151.73273    25.936807 
  0.72893936    152.02093    25.944358 
  0.73055403    151.95542    25.929011 
  0.74425319     151.8919    25.915635 
  0.72617268    151.76275    25.910386 
  0.72818636    151.81329    25.893521 
  0.72895546    152.03538    25.882552 
  0.72803808    152.27779    25.869546 
  0.70367597    152.11106     25.85795 
  0.71183581    151.94689    25.842432 
  0.71726699    152.12831    25.830604 
  0.68973902    152.89109    25.837956 
  0.69164992    153.81267    25.850938 
  0.68601028    154.79194     25.86744 
  0.70954197    156.06862    25.888089 
   0.6963639     157.6345    25.920911 
  0.70998972    158.99326     25.94499 
  0.70349901    160.33511     25.97072 
  0.69800642    161.64559    25.991861 
  0.70500304    162.74708    26.007237 
  0.72634451    163.61513    26.025085 
  0.70341663    164.15509    26.039075 
  0.69034621    164.15792    26.039614 
  0.69828181    164.57858    26.061674 
  0.72338645    165.16513    26.094149 
  0.72258663    165.68561    26.117902 
  0.73433505    166.93148     26.15725 
  0.76532025    168.15114    26.192885 
  0.75511833    168.88175    26.213397 
  0.76440333    169.71034     26.23381 
  0.77632401    170.35587    26.249659 
  0.79703267    171.03601    26.262772 
  0.78094909     171.8402    26.272944 
   0.7960649    172.79085    26.282131 
  0.79084027    173.59634    26.283626 
   0.7672978     174.1742    26.276327 
  0.75275939    175.07126    26.272716 
  0.75922604    176.13891    26.276072 
  0.74493443    177.55348    26.278516 
  0.76582122    178.92101    26.276971 
  0.77003608      180.156    26.278012 
  0.78009729    181.02848    26.278146 
  0.78109362    181.67589    26.271778 
  0.77023676    182.31147    26.259937 
  0.73998045    183.22426    26.255331 
  0.73655653     184.4091    26.263336 
  0.73215155    185.43772    26.259539 
   0.7123727    186.59222    26.253193 
   0.6749304    188.20355     26.25961 
  0.70125061    189.87539    26.274029 
  0.71894022    191.72089     26.29248 
  0.74594272    193.00819    26.293664 
  0.78402013    193.91476    26.285667 
  0.74348974    194.79736    26.291657 
  0.76891848    195.74386    26.307825 
  0.75180983    196.50492    26.323133 
  0.76337686    197.19955    26.339065 
  0.76836613    197.63839      26.3443 
  0.75385121    197.47936    26.327691 
  0.79692581    197.57599    26.312955 
  0.77583771    197.97406    26.316564 
  0.78781415    198.56183    26.325516 
  0.73563763    198.74509    26.332968 
  0.73798775    198.23443    26.317778 
  0.74034935    197.76958     26.30128 
  0.75268891    197.16635    26.285172 
  0.75945325      196.603    26.271228 
  0.74067038    196.33206    26.277396 
  0.77734484     196.4786    26.293837 
   0.7893013    196.22742    26.302411 
  0.77451514    195.51816    26.293935 
  0.79925898     194.7248    26.286953 
  0.80911858    193.70418    26.267173 
  0.83726936    192.73973    26.239677 
  0.82428115    191.96045    26.226215 
  0.78456716    190.85392    26.201854 
  0.73391265    189.60454    26.176495 
  0.68732332    188.06366    26.150151 
  0.68857507    187.06454    26.144624 
  0.68509182    186.20098    26.141574 
  0.65316154    185.68864    26.155248 
  0.66434052     184.8819    26.159743 
  0.67192851    184.07388    26.177229 
  0.68367611    183.58724    26.205306 
  0.68224196    182.92217      26.2403 
  0.66913227     182.5915    26.275727 
  0.69067621    182.57645    26.319245 
  0.69325435    182.85012    26.374703 
  0.68959128    183.12306    26.422638 
  0.68512098    183.76848    26.479328 
  0.71340463    184.78169    26.535056 
  0.73988948    185.92181    26.583432 
  0.73981626    187.13038    26.631425 
  0.73311975    188.16494    26.679085 
   0.7343778    189.01755    26.720332 
  0.71378934    189.12151    26.735867 
  0.70839478    188.81323     26.72773 
  0.70523201    188.32317    26.713633 
  0.70426589    187.98283    26.697389 
  0.71825123     187.9069    26.687792 
  0.72994798    187.99159    26.692361 
   0.7204898    187.99487    26.708753 
   0.7107541    188.06665    26.733286 
  0.73672239      187.514    26.731283 
   0.7423612    187.34825    26.732679 
   0.6939982    187.09759    26.729508 
  0.69962453    187.18259    26.731206 
  0.71000278    187.35086    26.745396 
  0.67167515    187.78949    26.771103 
  0.67858817    188.53192    26.804534 
  0.70479959    189.13902    26.821709 
  0.70691168    189.46313    26.818383 
  0.72029327    189.51402    26.795863 
  0.72124444    188.99915    26.756615 
  0.73971312    187.84316    26.693842 
  0.73669195    186.69094    26.625339 
   0.7093053    186.07192    26.564046 
  0.72458994    185.50458    26.502236 
  0.71465672    184.74579     26.44605 
  0.70096313    184.10773    26.406374 
   0.6990071    183.31254    26.354724 
  0.65302251    182.56925    26.305481 
  0.69165114     182.0606    26.248518 
  0.67187779    181.42731    26.181882 
  0.68746801      180.757    26.120985 
  0.63755491    179.86393    26.054593 
  0.63249082    179.60267    26.004764 
  0.63801555    179.20724     25.95485 
  0.67133017    178.44394    25.884415 
  0.68757841    177.72719    25.805642 
  0.70593797    176.76336    25.725366 
  0.74076974    175.45503    25.644605 
  0.73864664      173.946    25.558525 
   0.7788108    172.80008    25.490901 
  0.79421035    171.86253    25.434819 
   0.7810039    170.87121    25.373845 
  0.73572299    169.95823    25.323073 
  0.72859672    169.84759    25.296619 
  0.70964852    169.61093     25.27742 
   0.7353943    169.30399    25.259858 
  0.70359909    168.87461    25.217247 
  0.73722554    168.17772    25.165747 
    0.689852    167.27758    25.111755 
  0.63189136    166.26549    25.064073 
  0.70012543    165.43064    25.023829 
  0.71065694    164.25364    24.968487 
  0.72361598    163.14219    24.916744 
  0.69196298    162.27682    24.881448 
  0.66960825    161.38387    24.862549 
   0.7023123    160.90723    24.856655 
  0.71681702    160.52641    24.849727 
  0.68694271      160.575    24.844942 
  0.68945248    160.98258    24.844051 
  0.68368392    161.21045    24.832927 
  0.69349978    161.12049    24.818555 
  0.69871199    160.85513     24.79292 
   0.6816425    160.43192    24.769516 
  0.71419596    160.16662    24.752521 
  0.72758035    159.99278    24.744043 
    0.707787     159.7149    24.735936 
  0.71809721    159.86245     24.74598 
  0.68712476     160.3413    24.756033 
  0.66038152    161.10938    24.765185 
  0.64565914    161.83708    24.786144 
  0.69631082    162.52436    24.792539 
  0.67610138    163.35099    24.806227 
  0.67613039    163.75145    24.808812 
  0.69811077    164.10015    24.813128 
  0.69885172    164.38583    24.821364 
   0.7253218    164.40882    24.817635 
  0.72617357    164.35724    24.811938 
  0.72454072    163.91628    24.805398 
  0.76015242    163.53962     24.79374 
  0.76955462    163.45763    24.788041 
  0.76910213    163.77694    24.790367 
  0.78743746    164.24167    24.799431 
  0.78715746    164.67594    24.820188 
  0.78143021    164.94899    24.831958 
  0.79904051    164.96114    24.832662 
   0.8362634     164.9318    24.831156 
  0.86069165    164.76463    24.825385 
  0.85719896    164.56588    24.822381 
  0.87277603    164.40288    24.829027 
  0.89055627    164.34462    24.830929 
  0.88225286    164.64499    24.838518 
  0.86106714     164.6039    24.838444 
  0.88964639     164.5579    24.830408 
   0.8349817    164.14618    24.818299 
  0.82632764    163.99589    24.818276 
  0.89927379    164.35946     24.84182 
  0.88423833    164.80269    24.873716 
  0.86420391    165.13221    24.895816 
  0.88642288    165.54122     24.92605 
  0.90150447    166.10744    24.971163 
   0.9025892     166.5461    25.012226 
  0.87834225    167.08113    25.050512 
  0.83948555    168.19783     25.09252 
  0.78728162    169.21763    25.118865 
  0.75399933    169.97098    25.137869 
  0.74012673    171.06311    25.165467 
  0.70741543    172.39112    25.197261 
  0.73064699    173.95366    25.228272 
   0.7322813    175.42345    25.262399 
  0.73860206    177.02903    25.305565 
  0.75359541    178.88383    25.358166 
  0.72460559    181.27964    25.437712 
  0.67008975    183.51981    25.517794 
  0.69422772    185.86989    25.587978 
  0.65470333    188.05305    25.648674 
  0.67971746    190.02646    25.719867 
  0.69488663    191.50003    25.772295 
  0.66101685    192.77315    25.810046 
  0.65647446    193.94281    25.852287 
  0.64648146    194.68488    25.890765 
  0.68725183    195.04341    25.924112 
  0.72688384    195.03189    25.935993 
  0.70390836    194.71001     25.91177 
  0.73409143     194.3284    25.893305 
  0.72939318    193.96444    25.870245 
  0.74991133    193.70992    25.849362 
  0.77053488    193.08079    25.823218 
  0.73722681    192.16207    25.788623 
    0.759789    191.32274    25.749252 
   0.7505888    190.53576    25.712138 
  0.72916547    189.58243     25.65793 
  0.71233076    188.77795    25.604905 
  0.70107802    187.89857    25.541242 
  0.69274636    186.07768    25.454545 
  0.68119729    183.98496    25.363661 
  0.68772326    183.03955     25.31076 
  0.68749428    182.23049     25.26882 
  0.72354151    181.70593    25.232236 
  0.74633254    181.35663    25.211963 
  0.79430479    181.15458    25.187233 
  0.81769194    181.29209    25.170404 
  0.81864984    181.57021    25.162924 
  0.79505527     181.9445    25.161804 
  0.79702817    182.16754    25.150098 
  0.76740598     182.3743    25.151022 
   0.7512034    182.33413    25.132568 
  0.71784244    181.97615    25.117013 
  0.73151568    180.97697    25.097981 
[...]
  0.76809702    4617.4669    27.255345 
  0.78736731    4614.8388    27.258358 
  0.78957962    4613.1793    27.271895 
  0.75742755    4612.2688    27.285405 
   0.7065221    4611.5172     27.30781 
  0.73329033    4611.2743    27.333318 
  0.78537814    4612.9657    27.355121 
  0.78883992    4616.5125    27.385692 
  0.77429335    4618.1594    27.422551 
  0.72070801    4620.4827    27.456087 
  0.70529034    4624.1626    27.499591 
  0.70232234    4629.8999    27.534943 
  0.71906509    4633.3171    27.561752 
  0.70656111     4632.281     27.59548 
  0.71307416    4629.4945    27.622863 
  0.69449293    4624.6608    27.625456 
  0.66870851    4621.9391    27.621583 
  0.66527194     4618.921    27.603302 
   0.6854685    4612.8088    27.586538 
  0.68428015    4608.5427    27.576679 
  0.68866302    4603.6281    27.553102 
  0.67368785    4599.3366    27.521948 
  0.67889888    4594.9094    27.487967 
  0.72054533    4593.6083    27.459687 
  0.75963044    4595.0816    27.448278 
  0.73397408    4596.1769    27.444838 
    0.761335    4597.8898    27.442444 
  0.72466921     4598.927     27.43831 
  0.73494373    4601.6663    27.430656 
  0.70604313    4604.2718    27.421913 
  0.71547908    4607.7649     27.41126 
  0.74050929    4611.3271    27.401504 
  0.73588049    4613.8139    27.391971 
  0.69216083    4616.8196    27.396772 
  0.70694652    4620.3004    27.394853 
  0.71817457      4623.15    27.413679 
   0.7214919    4625.5047    27.459907 
  0.72763162    4626.8209    27.507894 
  0.73203683    4630.9201    27.561329 
  0.70945399    4636.8233    27.628047 
  0.73224467    4644.6376    27.695227 
  0.73792819    4653.6382    27.776069 
  0.72038316    4661.9971    27.842351 
  0.74341363    4668.8633     27.87942 
  0.74038537    4676.6347    27.916763 
   0.7545059    4686.1375    27.959153 
  0.74326067    4695.6795    27.993501 
   0.7373253    4704.8072    28.027725 
  0.73306853    4712.5335    28.063796 
   0.7163282    4718.0777    28.085282 
  0.72888737    4721.6045    28.095784 
   0.7488923    4724.6791    28.104937 
  0.74022255    4726.1128    28.113277 
  0.72901968    4728.1706    28.129716 
  0.71232122     4730.394     28.16539 
  0.71173726    4730.8537    28.213722 
  0.69578729    4730.3484    28.276752 
  0.70093975    4728.3247    28.327604 
  0.64913411    4722.9041    28.357105 
  0.68414283    4718.0589    28.360379 
  0.67903139    4714.8275    28.375988 
  0.72165499    4712.8763    28.399991 
  0.71468854    4712.0955     28.42484 
  0.74601557    4714.4372    28.451989 
  0.74099983    4718.3601    28.478419 
  0.74136722    4720.1776    28.497224 
  0.74123198    4720.0673    28.503259 
  0.73699118    4720.6945     28.50575 
  0.75163115     4721.656    28.491988 
  0.69552984    4725.3449    28.470512 
  0.70461595    4725.8841    28.448203 
  0.77848567    4727.6868    28.432323 
  0.78154673    4728.8352    28.412411 
  0.74078184    4729.3195    28.412661 
   0.7399619    4728.1095     28.42159 
  0.75518092     4725.471    28.420571 
  0.78238967    4723.6018    28.419286 
  0.77033907    4722.9592    28.426101 
  0.77829109    4720.0887    28.447522 
  0.79842938    4716.8465    28.479665 
  0.77367895    4712.5513    28.512668 
  0.75127994    4707.2758     28.55046 
  0.75008018    4702.9712    28.580666 
   0.7476951    4699.3229     28.58683 
  0.71947301     4694.607    28.570413 
  0.72833627    4691.5504    28.547791 
  0.74447934    4688.7112     28.52297 
  0.72361308    4684.4322    28.483199 
  0.73829952    4682.8296     28.45217 
  0.77135268    4680.9288    28.437336 
  0.78048448    4676.7029      28.4342 
  0.81139557     4670.104    28.442683 
  0.79269438    4663.1423    28.454376 
  0.77741427    4657.6377    28.468427 
  0.74404718    4650.7008    28.478012 
  0.71705296    4642.6253      28.4971 
  0.74106707    4635.1154    28.517855 
  0.75389338     4630.778    28.524508 
  0.81582485    4626.8152    28.525042 
   0.8071501    4624.3346     28.51378 
  0.84517515    4621.2781    28.507237 
  0.85017294     4620.039    28.502066 
  0.79846154    4618.0512    28.509365 
  0.80400148    4616.7819    28.521453 
  0.81191832    4617.3165    28.534445 
  0.80700922    4618.2315    28.531328 
  0.79543559    4619.0552     28.52337 
  0.73252225    4618.9131    28.504092 
  0.74162875    4617.2559    28.475235 
  0.72606576    4614.0143    28.456534 
  0.74996649    4609.6043     28.44549 
  0.81263938    4605.2297    28.439016 
  0.82547985    4601.9089    28.445307 
  0.81838948    4597.7254    28.445611 
  0.81039377    4596.4311    28.448601 
  0.77198519    4594.3161     28.45766 
  0.79394188    4590.5943    28.478254 
  0.82181163    4589.6438    28.498048 
  0.81250325    4590.6009    28.520754 
  0.80305989    4593.0947    28.548293 
  0.80909852    4596.3775    28.574411 
  0.81835532     4598.769    28.594149 
  0.77948226    4600.7519    28.590702 
  0.78074189    4602.8862    28.578665 
   0.7578944    4606.4022    28.556635 
  0.78144141    4608.6643    28.519552 
  0.76801811     4612.536    28.501649 
  0.76690832    4617.0472    28.481549 
  0.75602527    4620.5364    28.459067 
  0.74937929     4622.756    28.439717 
  0.78826977    4625.5191     28.41394 
  0.76959103    4626.5713    28.386753 
  0.78125284    4624.7232    28.362904 
  0.77654171    4622.2127    28.330827 
  0.77407372    4619.5682    28.301763 
  0.73020347     4616.641    28.268991 
  0.75440868    4613.3247    28.230131 
    0.735149     4611.039    28.180259 
  0.74581265    4606.6681    28.118023 
  0.76898909    4602.6411     28.05889 
  0.76954142     4599.779    28.012818 
  0.80601411    4594.1977    27.965523 
  0.86423111    4585.0165    27.912002 
  0.81213613    4575.9415    27.869701 
  0.78202823    4567.2727    27.827748 
  0.73851489    4555.6484    27.768434 
   0.7189149    4545.7158    27.712654 
  0.73299135    4535.1537    27.653686 
  0.75223951    4526.4225    27.606906 
  0.78882441    4516.0094    27.560412 
   0.8093574    4505.8937    27.527372 
  0.82948705    4499.3268    27.486546 
   0.8077847    4494.7111    27.447393 
  0.81384196    4492.0825    27.414866 
  0.79078722    4490.7628    27.378653 
  0.74362972    4487.2433    27.329937 
  0.71852147     4485.472    27.284149 
  0.68286137    4488.6625    27.240983 
  0.70784048    4490.8852    27.190706 
  0.71286013    4493.5243    27.153928 
  0.67409714    4498.2486    27.140687 
  0.71607348    4503.9519    27.123846 
  0.72894579    4509.7671     27.09971 
  0.76632127    4514.7068     27.08623 
  0.76614703    4519.7221     27.08102 
  0.78079592    4524.8759    27.074451 
  0.74357337    4528.4397    27.060572 
  0.74138915    4532.9231     27.04535 
  0.76510356    4537.7002    27.040441 
  0.76878961    4541.5245    27.044288 
  0.74226932    4546.7604    27.058742 
  0.66395568    4550.6404    27.054136 
  0.68488997    4554.5432    27.052984 
   0.7544622    4558.1985    27.054423 
  0.78205484    4560.7393    27.056878 
  0.76896354    4560.9933    27.044478 
   0.7768671    4557.3763    27.034348 
  0.81150287    4553.0043    27.025314 
  0.73998054    4548.8728    26.994786 
  0.75228549    4546.2873    26.936718 
  0.74681871     4547.181    26.879455 
  0.74038284    4549.8107    26.822093 
  0.70652211    4551.2544    26.776664 
   0.7429886    4553.0144    26.745987 
  0.74435169    4555.2295    26.725802 
  0.71605697    4556.9538    26.699638 
  0.71655906    4557.4783    26.679246 
   0.7456575    4557.9775    26.655411 
  0.72113518    4559.3631    26.641519 
  0.73014575    4561.7236    26.639302 
  0.77758424    4564.9038    26.637968 
  0.77726111    4566.3288    26.602832 
  0.77845102    4568.5738    26.571896 
  0.78750425    4570.6622    26.556466 
    0.820725    4574.1586    26.534401 
  0.82584997    4578.0709    26.503412 
  0.82550319    4579.6077    26.453684 
  0.80717844    4578.7006    26.412255 
   0.7668786     4576.034    26.374873 
  0.76829901    4574.1323    26.354428 
  0.75057011    4572.6627     26.33875 
  0.76097679    4572.5824    26.331595 
  0.77786231    4571.6847    26.306895 
  0.78718787    4571.5191    26.296661 
  0.76672223      4570.24    26.285325 
  0.78407493    4569.8127    26.284137 
  0.77601801    4571.0343    26.293446 
  0.81510511    4570.4235     26.29036 
  0.85310584     4569.264    26.285976 
   0.8920255    4566.2495    26.293497 
  0.91300638    4564.3833    26.300744 
   0.8826613    4562.9743    26.300743 
  0.83790079    4560.4276    26.306961 
  0.78778344    4557.4016    26.304212 
  0.75242446    4555.0945    26.307844 
  0.71828368     4553.582    26.341097 
  0.79773854    4553.0274    26.373064 
  0.83090524    4553.1245    26.417527 
   0.8082342    4553.6272    26.454555 
  0.80204817    4555.8076    26.488672 
  0.77062532    4559.1028    26.523925 
  0.75070131    4562.4959    26.547152 
  0.77850143    4564.7874    26.564133 
  0.79507394     4565.048     26.56251 
   0.7960541    4567.0315    26.560491 
   0.8387195    4568.1388    26.551435 
  0.87472686    4566.8415    26.541862 
  0.90395545    4566.4525    26.556812 
  0.89926446    4566.2783    26.599212 
  0.90304799    4567.7329    26.635788 
  0.91602914    4566.7907    26.668153 
  0.90961438    4565.1582    26.691135 
  0.88514603    4564.7927    26.695376 
  0.83683404    4567.8896    26.676865 
  0.81292309      4572.99    26.644826 
  0.83084741    4579.0464    26.629065 
  0.82338459    4583.4756    26.622596 
  0.73684565    4586.3137    26.621175 
  0.72653994    4589.0087    26.626864 
   0.7232836    4591.8155    26.642235 
   0.7116311    4593.2157    26.657297 
  0.74719326    4597.4711    26.657159 
  0.74791264    4602.8072     26.64859 
  0.77683534    4607.2127    26.628204 
  0.76765554    4610.9022    26.592685 
  0.72574058    4615.2865    26.557484 
  0.76285171     4620.924     26.53448 
  0.74077855    4627.0737    26.527204 
  0.71791065    4634.0976    26.510416 
  0.73731187    4639.6735    26.490472 
  0.74896514    4644.2146    26.460208 
  0.74264974    4652.1084    26.436465 
   0.7565374    4660.1992    26.417944 
  0.76264271    4666.1981    26.396214 
  0.76414322    4671.2145    26.381785 
  0.78303457    4677.6232    26.374911 
  0.80042256    4684.3681     26.37201 
  0.77957382    4689.7115     26.36418 
  0.78007236    4693.7871    26.357376 
  0.81424126    4694.7569    26.336558 
  0.83736712    4694.7933    26.323073 
   0.8314142    4694.0416    26.310287 
  0.83230749    4693.2091     26.28905 
   0.8250929    4693.8766     26.28413 
  0.79249115    4695.4986    26.285801 
  0.77966543    4695.8789    26.281358 
  0.79768322    4695.3261    26.268147 
  0.80947348    4698.0139    26.267107 
  0.81592178     4701.654    26.270814 
  0.79134684     4705.588    26.281054 
  0.80565876    4708.1149    26.291348 
  0.81998773    4709.6769    26.293452 
  0.80283191    4710.3672    26.284717 
  0.78281521    4711.8738    26.268998 
  0.83693472    4712.7171    26.261398 
  0.88205266    4714.6607    26.271024 
  0.86768077    4717.5802    26.279211 
  0.83021641    4719.1597    26.289361 
  0.78759211     4717.535    26.302847 
  0.79437353    4718.1527     26.31436 
  0.78815679    4721.2285     26.31433 
  0.73993031    4723.2215    26.314355 
   0.7448884    4723.7148    26.330624 
   0.7426168    4723.7626    26.330009 
   0.7564723    4725.7245    26.307017 
  0.77991863    4726.3221    26.271778 
  0.78026246    4725.0126    26.225116 
  0.79331382    4722.5969    26.176357 
  0.85194449    4717.3532    26.120915 
  0.86509789    4711.9948    26.079823 
  0.88622522    4707.6066     26.04016 
  0.82326761    4703.1835    26.019371 
  0.78091858    4698.4914    26.007735 
  0.76512128    4691.9873    26.005901 
  0.78945847    4686.4537    25.987419 
  0.72108683    4680.1457    25.974381 
  0.74034877    4674.4052    25.973188 
  0.75821173    4671.1266    25.984493 
  0.73581759    4669.3386    25.985947 
  0.73470677    4670.7089     25.98436 
  0.71219822    4672.9265    25.987396 
   0.7267211    4677.0217    26.007467 
  0.73808764    4682.5719    26.043664 
  0.74227193    4685.9491     26.09155 
  0.75292087    4692.0393     26.15258 
  0.71830601    4700.6347    26.220234 
  0.70775398    4706.4855    26.287921 
  0.67341381    4710.6819    26.364309 
  0.71374721    4717.3238    26.438474 
   0.6795394    4721.8863     26.48262 
  0.65443366    4723.6018    26.506868 
   0.6717513    4725.0799    26.537694 
  0.67577886    4727.6461     26.56268 
  0.72416181    4727.5543    26.591556 
  0.72730618    4728.5097    26.632515 
  0.73635896    4731.5344    26.672742 
  0.78496069    4736.9309    26.709448 
  0.80381079    4742.1323    26.732359 
  0.83542785    4746.0203    26.747167 
  0.86230324    4749.8152    26.746974 
  0.85963279    4755.1948    26.746434 
  0.88312513    4760.8629    26.731104 
  0.84600098    4766.4464    26.695963 
  0.79966302    4773.2344    26.669482 
  0.73868215    4780.3717     26.64577 
  0.73739795    4788.5429    26.618368 
  0.72671612    4796.6641    26.597194 
  0.70842403    4802.8693    26.564018 
  0.74931796    4808.8064    26.531188 
  0.74100611    4813.8684    26.487971 
  0.71336589    4817.0856    26.449494 
  0.69736598    4821.5365    26.413072 
  0.69936351     4826.099    26.387289 
   0.7157254    4828.9386    26.343042 
  0.75188977    4831.5681     26.30695 
   0.7513399    4833.6092    26.263063 
  0.74502241    4835.2544    26.218163 
  0.75747473    4835.0395    26.194171 
  0.73660389    4836.8511      26.1784 
  0.79453174    4837.3576    26.150026 
  0.78367506     4839.076    26.108002 
  0.83092199    4841.0543    26.067064 
   0.8555132    4843.4588    26.035785 
   0.8365675    4845.1683    26.003486 
  0.81211019    4846.8558    25.979218 
  0.79717638    4851.6044    25.980588 
  0.75653114    4856.5675    25.979862 
  0.74030853    4858.3949     25.96161 
  0.70728094    4860.4877    25.946231 
  0.71165005    4863.5691    25.937516 
  0.68985515     4865.767    25.933257 
  0.68735951    4868.0161     25.93263 
  0.69193477    4872.5716    25.954325 
  0.67850546    4875.8939    25.980409 
  0.70157008    4877.2573    26.034061 
  0.73233101    4878.3813    26.086702 
  0.75104917    4879.8234    26.151219 
  0.74971705    4881.8056     26.21005 
  0.78927362    4881.6313    26.261398 
  0.75144612    4878.9726    26.310225 
  0.76076249    4876.1531    26.384991 
  0.74227421    4872.4122    26.447926 
  0.72860611    4866.3643    26.498359 
  0.70209645    4860.1358    26.533011 
  0.64725254    4858.0173    26.555139 
  0.67851291    4854.9938    26.575271 
  0.65108326    4851.7645    26.584772 
  0.64578778     4850.234    26.600237 
  0.68788971    4848.0181    26.586985 
  0.68741783    4846.6691    26.583946 
  0.77081582    4845.4112    26.575664 
  0.81489974    4843.8553    26.574599 
  0.85526735    4841.5637    26.569968 
  0.85352648    4838.9009    26.543021 
  0.86276824    4835.8627    26.508755 
  0.87711334     4831.276     26.47851 
   0.8349401    4827.2717    26.437127 
  0.77592627    4823.7574    26.376565 
  0.80045683    4820.3219    26.301892 
   0.7974956    4816.2595    26.237367 
  0.78036693    4812.9666    26.207416 
  0.75520754    4805.5984    26.181732 
  0.77569158     4800.284    26.134503 
   0.7504753    4797.3401    26.075633 
  0.72326623    4796.1989    26.018773 
  0.69917813    4794.4485    25.969513 
  0.65413216    4791.6484    25.920171 
  0.70473564    4789.8669    25.872827 
  0.71035274    4786.6639    25.845508 
  0.71197603    4781.9999    25.814923 
  0.70698806    4777.5507     25.79839 
  0.69926594    4772.6344    25.764372 
  0.68728761    4766.9292     25.73264 
  0.66725651    4759.5596    25.695034 
  0.69129509    4753.4262    25.633478 
  0.66885678    4748.4866    25.567775 
  0.68630145    4744.1729    25.500003 
  0.69534666    4739.0865    25.434504 
  0.67916292    4735.3429     25.37948 
  0.68934877    4731.1032     25.33155 
  0.70061122    4725.0872     25.28755 
  0.70682482     4720.599    25.254497 
  0.71309507    4719.7993    25.241978 
  0.71773451    4717.3144    25.237605 
  0.72338531    4712.1212     25.21177 
  0.70032636    4706.2806    25.185522 
  0.70585951    4698.2155    25.157503 
   0.7195479    4689.0216    25.124657 
  0.72678573     4679.847    25.075505 
  0.71172579    4672.7635     25.02654 
  0.68745669    4667.6557    24.978234 
   0.7040581    4664.7364    24.968563 
  0.68730308    4662.7679     24.97641 
  0.70600555    4661.0469    24.996776 
  0.73146977    4658.1504    25.011216 
   0.7211017     4653.471    25.031579 
  0.73144568    4646.7353    25.039488 
  0.76475305     4640.397    25.033709 
  0.75258999    4633.2188    25.019901 
   0.7421383    4629.5068    25.013985 
  0.71631423    4629.6582    24.993906 
  0.70340273    4629.6359    24.960753 
  0.66656671    4627.4731    24.943744 
  0.68359437    4624.7046    24.933286 
  0.67865776    4622.6805    24.929257 
   0.6561519    4621.0436    24.935712 
  0.69446685    4620.0725     24.93497 
  0.72581541    4616.7182    24.926918 
  0.70771867    4613.3767    24.930108 
  0.72515322    4609.2333    24.936819 
  0.71052543    4604.3094     24.93789 
  0.72423972    4595.5455    24.913222 
  0.73245331    4585.4573    24.893818 
  0.71085824    4576.5546    24.867356 
  0.74860401    4567.9517    24.831229 
  0.77388862    4558.3068    24.792604 
  0.77977114    4546.8411    24.741377 
   0.7278545    4534.3973    24.699397 
  0.74844696    4522.6346    24.675516 
  0.74319159    4511.7317     24.65233 
  0.73662139    4500.8038    24.632841 
  0.72326958    4490.2748    24.626939 
  0.71503981     4482.559    24.635474 
  0.70993704    4477.3816      24.6673 
  0.72119532    4472.4863    24.701772 
  0.72438719    4466.5785    24.736362 
  0.72884251    4459.7051    24.760076 
  0.76148442    4451.8565    24.763846 
  0.76887623     4445.696    24.770716 
  0.81894467    4438.7623    24.775438 
  0.83234535    4433.5187    24.773507 
  0.86447856    4429.0374    24.787691 
   0.8774751    4424.1453    24.799335 
  0.88277076    4419.8335    24.821802 
  0.85407741    4414.8129    24.870096 
  0.82394807    4409.7284    24.932806 
  0.83132914     4404.511    24.990997 
  0.81272045    4397.5087    25.053637 
  0.78674597    4392.3568    25.096797 
  0.76334552    4388.6449    25.128909 
  0.74153704    4387.0133    25.160868 
  0.71118864    4383.0371    25.182898 
  0.71881921    4379.1834    25.196291 
    0.692764    4375.2327    25.225255 
  0.67904846    4374.1426    25.268951 
  0.68181365    4376.0607    25.302756 
  0.71543536    4378.7821    25.337694 
  0.69853107    4381.8243    25.374867 
  0.73262798     4383.313    25.415882 
   0.7418481     4380.563    25.451268 
  0.68090831    4377.0525    25.484712 
Loop time of 41.1428 on 24 procs for 1000000 steps with 10 atoms

Performance: 21000021.737 tau/day, 24305.581 timesteps/s
46.4% CPU use with 24 MPI tasks x no OpenMP threads

MPI task timing breakdown:
Section |  min time  |  avg time  |  max time  |%varavg| %total
---------------------------------------------------------------
Pair    | 0.066549   | 0.088367   | 0.11222    |   4.3 |  0.21
Bond    | 0.060595   | 0.070077   | 0.081877   |   2.1 |  0.17
Neigh   | 2.7276     | 3.0276     | 3.3462     |   9.6 |  7.36
Comm    | 4.6721     | 5.4216     | 5.938      |  16.7 | 13.18
Output  | 19.909     | 20.009     | 20.091     |   1.1 | 48.63
Modify  | 0.17596    | 0.22097    | 0.29254    |   5.7 |  0.54
Other   |            | 12.31      |            |       | 29.91

Nlocal:    0.416667 ave 10 max 0 min
Histogram: 23 0 0 0 0 0 0 0 0 1
Nghost:    1.25 ave 10 max 0 min
Histogram: 21 0 0 0 0 0 0 0 0 3
Neighs:    0.875 ave 21 max 0 min
Histogram: 23 0 0 0 0 0 0 0 0 1

Total # of neighbors = 21
Ave neighs/atom = 2.1
Ave special neighs/atom = 4.8
Neighbor list builds = 160710
Dangerous builds = 0
Total wall time: 0:00:42
