LAMMPS description of a ten-mer

10 atoms
9 bonds
0 angles
0 dihedrals
0 impropers

1 atom types
1 bond types

0 60 xlo xhi
0 30 ylo yhi
0 30 zlo zhi

Masses

1 1.0

Pair Coeffs

1 2.5 1


Bond Coeffs

1 2 0.5

Atoms

1	1	1	22 15 15
2	1	1	21 15 15	
3	1	1	20	15 15
4	1	1	19	15 15
5	1	1	18	15 15
6	1	1	17	15 15
7	1	1	16	15 15
8	1	1	15 15 15
9	1	1	14 15 15
10	1	1	13 15 15

Bonds

1	1	1	2	
2	1	2	3	
3	1	3	4	
4	1	4	5	
5	1	5	6	
6	1	6	7	
7	1	7	8	
8	1	8	9	
9	1	9	10